
     Program PWSCF v.5.4.0 starts on 11Oct2016 at 17: 3:42 

     This program is part of the open-source Quantum ESPRESSO suite
     for quantum simulation of materials; please cite
         "P. Giannozzi et al., J. Phys.:Condens. Matter 21 395502 (2009);
          URL http://www.quantum-espresso.org", 
     in publications or presentations arising from this work. More details at
     http://www.quantum-espresso.org/quote

     Parallel version (MPI), running on    20 processors
     K-points division:     npool     =       4
     R & G space division:  proc/nbgrp/npool/nimage =       5
     Waiting for input...
     Reading input from standard input

     Current dimensions of program PWSCF are:
     Max number of different atomic species (ntypx) = 10
     Max number of k-points (npk) =  40000
     Max angular momentum in pseudopotentials (lmaxx) =  3

     Atomic positions and unit cell read from directory:
     /scratch/qichen/PbTe/large/PbTe_rel.save/
 

     Subspace diagonalization in iterative solution of the eigenvalue problem:
     a serial algorithm will be used

 
     Parallelization info
     --------------------
     sticks:   dense  smooth     PW     G-vecs:    dense   smooth      PW
     Min         252     252     72                 5924     5924     895
     Max         253     253     73                 5928     5928     896
     Sum        1261    1261    361                29627    29627    4477
 


     bravais-lattice index     =            2
     lattice parameter (alat)  =      11.8873  a.u.
     unit-cell volume          =     419.9424 (a.u.)^3
     number of atoms/cell      =            2
     number of atomic types    =            2
     number of electrons       =        10.00
     number of Kohn-Sham states=           24
     kinetic-energy cutoff     =      65.0000  Ry
     charge density cutoff     =     260.0000  Ry
     Exchange-correlation      = LDA ( 1  1  0  0 0 0)
     Non magnetic calculation with spin-orbit


     celldm(1)=  11.887300  celldm(2)=   0.000000  celldm(3)=   0.000000
     celldm(4)=   0.000000  celldm(5)=   0.000000  celldm(6)=   0.000000

     crystal axes: (cart. coord. in units of alat)
               a(1) = (  -0.500000   0.000000   0.500000 )  
               a(2) = (   0.000000   0.500000   0.500000 )  
               a(3) = (  -0.500000   0.500000   0.000000 )  

     reciprocal axes: (cart. coord. in units 2 pi/alat)
               b(1) = ( -1.000000 -1.000000  1.000000 )  
               b(2) = (  1.000000  1.000000  1.000000 )  
               b(3) = ( -1.000000  1.000000 -1.000000 )  


     PseudoPot. # 1 for Pb read from file:
     /scratch/qichen/PSlibrary/element/Pb/Pb.rel-pz-n-nc.UPF
     MD5 check sum: 92cea90c9cd3880773f6a1560a0a4433
     Pseudo is Norm-conserving + core correction, Zval =  4.0
     Generated using "atomic" code by A. Dal Corso  v.5.4.0
     Using radial grid of 1281 points,  4 beta functions with: 
                l(1) =   1
                l(2) =   1
                l(3) =   2
                l(4) =   2

     PseudoPot. # 2 for Te read from file:
     /scratch/qichen/PSlibrary/element/Pb/Te.rel-pz-n-nc.UPF
     MD5 check sum: 21394172f097b77d90c19c80635cc207
     Pseudo is Norm-conserving + core correction, Zval =  6.0
     Generated using "atomic" code by A. Dal Corso  v.5.4.0
     Using radial grid of 1245 points,  4 beta functions with: 
                l(1) =   1
                l(2) =   1
                l(3) =   2
                l(4) =   2

     atomic species   valence    mass     pseudopotential
        Pb             4.00   207.20000     Pb( 1.00)
        Te             6.00   127.60000     Te( 1.00)

     48 Sym. Ops., with inversion, found


                                    s                        frac. trans.

      isym =  1     identity                                     

 cryst.   s( 1) = (     1          0          0      )
                  (     0          1          0      )
                  (     0          0          1      )

 cart.    s( 1) = (  1.0000000  0.0000000  0.0000000 )
                  (  0.0000000  1.0000000  0.0000000 )
                  (  0.0000000  0.0000000  1.0000000 )


      isym =  2     180 deg rotation - cart. axis [0,0,1]        

 cryst.   s( 2) = (     0          1         -1      )
                  (     1          0         -1      )
                  (     0          0         -1      )

 cart.    s( 2) = ( -1.0000000  0.0000000  0.0000000 )
                  (  0.0000000 -1.0000000  0.0000000 )
                  (  0.0000000  0.0000000  1.0000000 )


      isym =  3     180 deg rotation - cart. axis [0,1,0]        

 cryst.   s( 3) = (    -1          0          0      )
                  (    -1          0          1      )
                  (    -1          1          0      )

 cart.    s( 3) = ( -1.0000000  0.0000000  0.0000000 )
                  (  0.0000000  1.0000000  0.0000000 )
                  (  0.0000000  0.0000000 -1.0000000 )


      isym =  4     180 deg rotation - cart. axis [1,0,0]        

 cryst.   s( 4) = (     0         -1          1      )
                  (     0         -1          0      )
                  (     1         -1          0      )

 cart.    s( 4) = (  1.0000000  0.0000000  0.0000000 )
                  (  0.0000000 -1.0000000  0.0000000 )
                  (  0.0000000  0.0000000 -1.0000000 )


      isym =  5     180 deg rotation - cart. axis [1,1,0]        

 cryst.   s( 5) = (     0         -1          0      )
                  (    -1          0          0      )
                  (     0          0         -1      )

 cart.    s( 5) = (  0.0000000  1.0000000  0.0000000 )
                  (  1.0000000  0.0000000  0.0000000 )
                  (  0.0000000  0.0000000 -1.0000000 )


      isym =  6     180 deg rotation - cart. axis [1,-1,0]       

 cryst.   s( 6) = (    -1          0          1      )
                  (     0         -1          1      )
                  (     0          0          1      )

 cart.    s( 6) = (  0.0000000 -1.0000000  0.0000000 )
                  ( -1.0000000  0.0000000  0.0000000 )
                  (  0.0000000  0.0000000 -1.0000000 )


      isym =  7      90 deg rotation - cart. axis [0,0,-1]       

 cryst.   s( 7) = (     0          1          0      )
                  (     0          1         -1      )
                  (    -1          1          0      )

 cart.    s( 7) = (  0.0000000  1.0000000  0.0000000 )
                  ( -1.0000000  0.0000000  0.0000000 )
                  (  0.0000000  0.0000000  1.0000000 )


      isym =  8      90 deg rotation - cart. axis [0,0,1]        

 cryst.   s( 8) = (     1          0         -1      )
                  (     1          0          0      )
                  (     1         -1          0      )

 cart.    s( 8) = (  0.0000000 -1.0000000  0.0000000 )
                  (  1.0000000  0.0000000  0.0000000 )
                  (  0.0000000  0.0000000  1.0000000 )


      isym =  9     180 deg rotation - cart. axis [1,0,1]        

 cryst.   s( 9) = (    -1          0          0      )
                  (     0          0         -1      )
                  (     0         -1          0      )

 cart.    s( 9) = (  0.0000000  0.0000000  1.0000000 )
                  (  0.0000000 -1.0000000  0.0000000 )
                  (  1.0000000  0.0000000  0.0000000 )


      isym = 10     180 deg rotation - cart. axis [-1,0,1]       

 cryst.   s(10) = (     1          0          0      )
                  (     1         -1          0      )
                  (     1          0         -1      )

 cart.    s(10) = (  0.0000000  0.0000000 -1.0000000 )
                  (  0.0000000 -1.0000000  0.0000000 )
                  ( -1.0000000  0.0000000  0.0000000 )


      isym = 11      90 deg rotation - cart. axis [0,1,0]        

 cryst.   s(11) = (     0          1         -1      )
                  (    -1          1          0      )
                  (     0          1          0      )

 cart.    s(11) = (  0.0000000  0.0000000  1.0000000 )
                  (  0.0000000  1.0000000  0.0000000 )
                  ( -1.0000000  0.0000000  0.0000000 )


      isym = 12      90 deg rotation - cart. axis [0,-1,0]       

 cryst.   s(12) = (     0         -1          1      )
                  (     0          0          1      )
                  (    -1          0          1      )

 cart.    s(12) = (  0.0000000  0.0000000 -1.0000000 )
                  (  0.0000000  1.0000000  0.0000000 )
                  (  1.0000000  0.0000000  0.0000000 )


      isym = 13     180 deg rotation - cart. axis [0,1,1]        

 cryst.   s(13) = (    -1          1          0      )
                  (     0          1          0      )
                  (     0          1         -1      )

 cart.    s(13) = ( -1.0000000  0.0000000  0.0000000 )
                  (  0.0000000  0.0000000  1.0000000 )
                  (  0.0000000  1.0000000  0.0000000 )


      isym = 14     180 deg rotation - cart. axis [0,1,-1]       

 cryst.   s(14) = (     0          0         -1      )
                  (     0         -1          0      )
                  (    -1          0          0      )

 cart.    s(14) = ( -1.0000000  0.0000000  0.0000000 )
                  (  0.0000000  0.0000000 -1.0000000 )
                  (  0.0000000 -1.0000000  0.0000000 )


      isym = 15      90 deg rotation - cart. axis [-1,0,0]       

 cryst.   s(15) = (     0          0          1      )
                  (    -1          0          1      )
                  (     0         -1          1      )

 cart.    s(15) = (  1.0000000  0.0000000  0.0000000 )
                  (  0.0000000  0.0000000  1.0000000 )
                  (  0.0000000 -1.0000000  0.0000000 )


      isym = 16      90 deg rotation - cart. axis [1,0,0]        

 cryst.   s(16) = (     1         -1          0      )
                  (     1          0         -1      )
                  (     1          0          0      )

 cart.    s(16) = (  1.0000000  0.0000000  0.0000000 )
                  (  0.0000000  0.0000000 -1.0000000 )
                  (  0.0000000  1.0000000  0.0000000 )


      isym = 17     120 deg rotation - cart. axis [-1,-1,-1]     

 cryst.   s(17) = (    -1          0          1      )
                  (    -1          1          0      )
                  (    -1          0          0      )

 cart.    s(17) = (  0.0000000  1.0000000  0.0000000 )
                  (  0.0000000  0.0000000  1.0000000 )
                  (  1.0000000  0.0000000  0.0000000 )


      isym = 18     120 deg rotation - cart. axis [-1,1,1]       

 cryst.   s(18) = (     0          1          0      )
                  (     0          0          1      )
                  (     1          0          0      )

 cart.    s(18) = (  0.0000000 -1.0000000  0.0000000 )
                  (  0.0000000  0.0000000  1.0000000 )
                  ( -1.0000000  0.0000000  0.0000000 )


      isym = 19     120 deg rotation - cart. axis [1,1,-1]       

 cryst.   s(19) = (     1          0         -1      )
                  (     0          0         -1      )
                  (     0          1         -1      )

 cart.    s(19) = (  0.0000000  1.0000000  0.0000000 )
                  (  0.0000000  0.0000000 -1.0000000 )
                  ( -1.0000000  0.0000000  0.0000000 )


      isym = 20     120 deg rotation - cart. axis [1,-1,1]       

 cryst.   s(20) = (     0         -1          0      )
                  (     1         -1          0      )
                  (     0         -1          1      )

 cart.    s(20) = (  0.0000000 -1.0000000  0.0000000 )
                  (  0.0000000  0.0000000 -1.0000000 )
                  (  1.0000000  0.0000000  0.0000000 )


      isym = 21     120 deg rotation - cart. axis [1,1,1]        

 cryst.   s(21) = (     0          0         -1      )
                  (     0          1         -1      )
                  (     1          0         -1      )

 cart.    s(21) = (  0.0000000  0.0000000  1.0000000 )
                  (  1.0000000  0.0000000  0.0000000 )
                  (  0.0000000  1.0000000  0.0000000 )


      isym = 22     120 deg rotation - cart. axis [-1,1,-1]      

 cryst.   s(22) = (    -1          1          0      )
                  (    -1          0          0      )
                  (    -1          0          1      )

 cart.    s(22) = (  0.0000000  0.0000000  1.0000000 )
                  ( -1.0000000  0.0000000  0.0000000 )
                  (  0.0000000 -1.0000000  0.0000000 )


      isym = 23     120 deg rotation - cart. axis [1,-1,-1]      

 cryst.   s(23) = (     0          0          1      )
                  (     1          0          0      )
                  (     0          1          0      )

 cart.    s(23) = (  0.0000000  0.0000000 -1.0000000 )
                  ( -1.0000000  0.0000000  0.0000000 )
                  (  0.0000000  1.0000000  0.0000000 )


      isym = 24     120 deg rotation - cart. axis [-1,-1,1]      

 cryst.   s(24) = (     1         -1          0      )
                  (     0         -1          1      )
                  (     0         -1          0      )

 cart.    s(24) = (  0.0000000  0.0000000 -1.0000000 )
                  (  1.0000000  0.0000000  0.0000000 )
                  (  0.0000000 -1.0000000  0.0000000 )


      isym = 25     inversion                                    

 cryst.   s(25) = (    -1          0          0      )
                  (     0         -1          0      )
                  (     0          0         -1      )

 cart.    s(25) = ( -1.0000000  0.0000000  0.0000000 )
                  (  0.0000000 -1.0000000  0.0000000 )
                  (  0.0000000  0.0000000 -1.0000000 )


      isym = 26     inv. 180 deg rotation - cart. axis [0,0,1]   

 cryst.   s(26) = (     0         -1          1      )
                  (    -1          0          1      )
                  (     0          0          1      )

 cart.    s(26) = (  1.0000000  0.0000000  0.0000000 )
                  (  0.0000000  1.0000000  0.0000000 )
                  (  0.0000000  0.0000000 -1.0000000 )


      isym = 27     inv. 180 deg rotation - cart. axis [0,1,0]   

 cryst.   s(27) = (     1          0          0      )
                  (     1          0         -1      )
                  (     1         -1          0      )

 cart.    s(27) = (  1.0000000  0.0000000  0.0000000 )
                  (  0.0000000 -1.0000000  0.0000000 )
                  (  0.0000000  0.0000000  1.0000000 )


      isym = 28     inv. 180 deg rotation - cart. axis [1,0,0]   

 cryst.   s(28) = (     0          1         -1      )
                  (     0          1          0      )
                  (    -1          1          0      )

 cart.    s(28) = ( -1.0000000  0.0000000  0.0000000 )
                  (  0.0000000  1.0000000  0.0000000 )
                  (  0.0000000  0.0000000  1.0000000 )


      isym = 29     inv. 180 deg rotation - cart. axis [1,1,0]   

 cryst.   s(29) = (     0          1          0      )
                  (     1          0          0      )
                  (     0          0          1      )

 cart.    s(29) = (  0.0000000 -1.0000000  0.0000000 )
                  ( -1.0000000  0.0000000  0.0000000 )
                  (  0.0000000  0.0000000  1.0000000 )


      isym = 30     inv. 180 deg rotation - cart. axis [1,-1,0]  

 cryst.   s(30) = (     1          0         -1      )
                  (     0          1         -1      )
                  (     0          0         -1      )

 cart.    s(30) = (  0.0000000  1.0000000  0.0000000 )
                  (  1.0000000  0.0000000  0.0000000 )
                  (  0.0000000  0.0000000  1.0000000 )


      isym = 31     inv.  90 deg rotation - cart. axis [0,0,-1]  

 cryst.   s(31) = (     0         -1          0      )
                  (     0         -1          1      )
                  (     1         -1          0      )

 cart.    s(31) = (  0.0000000 -1.0000000  0.0000000 )
                  (  1.0000000  0.0000000  0.0000000 )
                  (  0.0000000  0.0000000 -1.0000000 )


      isym = 32     inv.  90 deg rotation - cart. axis [0,0,1]   

 cryst.   s(32) = (    -1          0          1      )
                  (    -1          0          0      )
                  (    -1          1          0      )

 cart.    s(32) = (  0.0000000  1.0000000  0.0000000 )
                  ( -1.0000000  0.0000000  0.0000000 )
                  (  0.0000000  0.0000000 -1.0000000 )


      isym = 33     inv. 180 deg rotation - cart. axis [1,0,1]   

 cryst.   s(33) = (     1          0          0      )
                  (     0          0          1      )
                  (     0          1          0      )

 cart.    s(33) = (  0.0000000  0.0000000 -1.0000000 )
                  (  0.0000000  1.0000000  0.0000000 )
                  ( -1.0000000  0.0000000  0.0000000 )


      isym = 34     inv. 180 deg rotation - cart. axis [-1,0,1]  

 cryst.   s(34) = (    -1          0          0      )
                  (    -1          1          0      )
                  (    -1          0          1      )

 cart.    s(34) = (  0.0000000  0.0000000  1.0000000 )
                  (  0.0000000  1.0000000  0.0000000 )
                  (  1.0000000  0.0000000  0.0000000 )


      isym = 35     inv.  90 deg rotation - cart. axis [0,1,0]   

 cryst.   s(35) = (     0         -1          1      )
                  (     1         -1          0      )
                  (     0         -1          0      )

 cart.    s(35) = (  0.0000000  0.0000000 -1.0000000 )
                  (  0.0000000 -1.0000000  0.0000000 )
                  (  1.0000000  0.0000000  0.0000000 )


      isym = 36     inv.  90 deg rotation - cart. axis [0,-1,0]  

 cryst.   s(36) = (     0          1         -1      )
                  (     0          0         -1      )
                  (     1          0         -1      )

 cart.    s(36) = (  0.0000000  0.0000000  1.0000000 )
                  (  0.0000000 -1.0000000  0.0000000 )
                  ( -1.0000000  0.0000000  0.0000000 )


      isym = 37     inv. 180 deg rotation - cart. axis [0,1,1]   

 cryst.   s(37) = (     1         -1          0      )
                  (     0         -1          0      )
                  (     0         -1          1      )

 cart.    s(37) = (  1.0000000  0.0000000  0.0000000 )
                  (  0.0000000  0.0000000 -1.0000000 )
                  (  0.0000000 -1.0000000  0.0000000 )


      isym = 38     inv. 180 deg rotation - cart. axis [0,1,-1]  

 cryst.   s(38) = (     0          0          1      )
                  (     0          1          0      )
                  (     1          0          0      )

 cart.    s(38) = (  1.0000000  0.0000000  0.0000000 )
                  (  0.0000000  0.0000000  1.0000000 )
                  (  0.0000000  1.0000000  0.0000000 )


      isym = 39     inv.  90 deg rotation - cart. axis [-1,0,0]  

 cryst.   s(39) = (     0          0         -1      )
                  (     1          0         -1      )
                  (     0          1         -1      )

 cart.    s(39) = ( -1.0000000  0.0000000  0.0000000 )
                  (  0.0000000  0.0000000 -1.0000000 )
                  (  0.0000000  1.0000000  0.0000000 )


      isym = 40     inv.  90 deg rotation - cart. axis [1,0,0]   

 cryst.   s(40) = (    -1          1          0      )
                  (    -1          0          1      )
                  (    -1          0          0      )

 cart.    s(40) = ( -1.0000000  0.0000000  0.0000000 )
                  (  0.0000000  0.0000000  1.0000000 )
                  (  0.0000000 -1.0000000  0.0000000 )


      isym = 41     inv. 120 deg rotation - cart. axis [-1,-1,-1]

 cryst.   s(41) = (     1          0         -1      )
                  (     1         -1          0      )
                  (     1          0          0      )

 cart.    s(41) = (  0.0000000 -1.0000000  0.0000000 )
                  (  0.0000000  0.0000000 -1.0000000 )
                  ( -1.0000000  0.0000000  0.0000000 )


      isym = 42     inv. 120 deg rotation - cart. axis [-1,1,1]  

 cryst.   s(42) = (     0         -1          0      )
                  (     0          0         -1      )
                  (    -1          0          0      )

 cart.    s(42) = (  0.0000000  1.0000000  0.0000000 )
                  (  0.0000000  0.0000000 -1.0000000 )
                  (  1.0000000  0.0000000  0.0000000 )


      isym = 43     inv. 120 deg rotation - cart. axis [1,1,-1]  

 cryst.   s(43) = (    -1          0          1      )
                  (     0          0          1      )
                  (     0         -1          1      )

 cart.    s(43) = (  0.0000000 -1.0000000  0.0000000 )
                  (  0.0000000  0.0000000  1.0000000 )
                  (  1.0000000  0.0000000  0.0000000 )


      isym = 44     inv. 120 deg rotation - cart. axis [1,-1,1]  

 cryst.   s(44) = (     0          1          0      )
                  (    -1          1          0      )
                  (     0          1         -1      )

 cart.    s(44) = (  0.0000000  1.0000000  0.0000000 )
                  (  0.0000000  0.0000000  1.0000000 )
                  ( -1.0000000  0.0000000  0.0000000 )


      isym = 45     inv. 120 deg rotation - cart. axis [1,1,1]   

 cryst.   s(45) = (     0          0          1      )
                  (     0         -1          1      )
                  (    -1          0          1      )

 cart.    s(45) = (  0.0000000  0.0000000 -1.0000000 )
                  ( -1.0000000  0.0000000  0.0000000 )
                  (  0.0000000 -1.0000000  0.0000000 )


      isym = 46     inv. 120 deg rotation - cart. axis [-1,1,-1] 

 cryst.   s(46) = (     1         -1          0      )
                  (     1          0          0      )
                  (     1          0         -1      )

 cart.    s(46) = (  0.0000000  0.0000000 -1.0000000 )
                  (  1.0000000  0.0000000  0.0000000 )
                  (  0.0000000  1.0000000  0.0000000 )


      isym = 47     inv. 120 deg rotation - cart. axis [1,-1,-1] 

 cryst.   s(47) = (     0          0         -1      )
                  (    -1          0          0      )
                  (     0         -1          0      )

 cart.    s(47) = (  0.0000000  0.0000000  1.0000000 )
                  (  1.0000000  0.0000000  0.0000000 )
                  (  0.0000000 -1.0000000  0.0000000 )


      isym = 48     inv. 120 deg rotation - cart. axis [-1,-1,1] 

 cryst.   s(48) = (    -1          1          0      )
                  (     0          1         -1      )
                  (     0          1          0      )

 cart.    s(48) = (  0.0000000  0.0000000  1.0000000 )
                  ( -1.0000000  0.0000000  0.0000000 )
                  (  0.0000000  1.0000000  0.0000000 )


     double point group O_h (m-3m) 
     there are 16 classes and  6 irreducible representations
     the character table:

       E     -E    8C3   -8C3   3C2  6C4   -6C4   6C2' i     -i    8S6   -8S6 
                               -3C2              -6C2'                        
G_6+   2.00 -2.00  1.00 -1.00  0.00  1.41 -1.41  0.00  2.00 -2.00  1.00 -1.00
G_7+   2.00 -2.00  1.00 -1.00  0.00 -1.41  1.41  0.00  2.00 -2.00  1.00 -1.00
G_8+   4.00 -4.00 -1.00  1.00  0.00  0.00  0.00  0.00  4.00 -4.00 -1.00  1.00
G_6-   2.00 -2.00  1.00 -1.00  0.00  1.41 -1.41  0.00 -2.00  2.00 -1.00  1.00
G_7-   2.00 -2.00  1.00 -1.00  0.00 -1.41  1.41  0.00 -2.00  2.00 -1.00  1.00
G_8-   4.00 -4.00 -1.00  1.00  0.00  0.00  0.00  0.00 -4.00  4.00  1.00 -1.00

        3s_h 6S4   -6S4   6s_d
       -3s_h             -6s_d
G_6+   0.00  1.41 -1.41  0.00
G_7+   0.00 -1.41  1.41  0.00
G_8+   0.00  0.00  0.00  0.00
G_6-   0.00 -1.41  1.41  0.00
G_7-   0.00  1.41 -1.41  0.00
G_8-   0.00  0.00  0.00  0.00

     the symmetry operations in each class and the name of the first element:

     E             1
          identity                                               
     -E           -1
          identity E                                             
     8C3          17   19   20   18   24   21   22   23
          120 deg rotation - cart. axis [-1,-1,-1]               
     -8C3        -17  -19  -20  -18  -24  -21  -22  -23
          120 deg rotation - cart. axis [-1,-1,-1] E             
      3C2 -3C2     2   -2    4   -4    3   -3
          180 deg rotation - cart. axis [0,0,1]                  
     6C4           7    8   15   16   12   11
           90 deg rotation - cart. axis [0,0,-1]                 
     -6C4         -7   -8  -15  -16  -12  -11
           90 deg rotation - cart. axis [0,0,-1] E               
      6C2'-6C2'    5   -5    6   -6   14  -13  -14   13  -10   -9   10    9
          180 deg rotation - cart. axis [1,1,0]                  
     i            25
          inversion                                              
     -i          -25
          inversion E                                            
     8S6          41   43   44   42   48   45   46   47
          inv. 120 deg rotation - cart. axis [-1,-1,-1]          
     -8S6        -41  -43  -44  -42  -48  -45  -46  -47
          inv. 120 deg rotation - cart. axis [-1,-1,-1] E        
      3s_h-3s_h   26  -26   28  -28   27  -27
          inv. 180 deg rotation - cart. axis [0,0,1]             
     6S4          31   32   39   40   36   35
          inv.  90 deg rotation - cart. axis [0,0,-1]            
     -6S4        -31  -32  -39  -40  -36  -35
          inv.  90 deg rotation - cart. axis [0,0,-1] E          
      6s_d-6s_d   29  -29   30  -30   38  -37  -38   37  -34  -33   34   33
          inv. 180 deg rotation - cart. axis [1,1,0]             

   Cartesian axes

     site n.     atom                  positions (alat units)
         1           Pb  tau(   1) = (   0.0000000   0.0000000   0.0000000  )
         2           Te  tau(   2) = (  -0.5000000   0.5000000   0.5000000  )

   Crystallographic axes

     site n.     atom                  positions (cryst. coord.)
         1           Pb  tau(   1) = (  0.0000000  0.0000000  0.0000000  )
         2           Te  tau(   2) = (  0.5000000  0.5000000  0.5000000  )

     number of k points=   125
                       cart. coord. in units 2pi/alat
        k(    1) = (  -0.4950000   0.4950000   0.4950000), wk =   0.0080000
        k(    2) = (  -0.4975000   0.4975000   0.4925000), wk =   0.0080000
        k(    3) = (  -0.5000000   0.5000000   0.4900000), wk =   0.0080000
        k(    4) = (  -0.5025000   0.5025000   0.4875000), wk =   0.0080000
        k(    5) = (  -0.5050000   0.5050000   0.4850000), wk =   0.0080000
        k(    6) = (  -0.4925000   0.4975000   0.4975000), wk =   0.0080000
        k(    7) = (  -0.4950000   0.5000000   0.4950000), wk =   0.0080000
        k(    8) = (  -0.4975000   0.5025000   0.4925000), wk =   0.0080000
        k(    9) = (  -0.5000000   0.5050000   0.4900000), wk =   0.0080000
        k(   10) = (  -0.5025000   0.5075000   0.4875000), wk =   0.0080000
        k(   11) = (  -0.4900000   0.5000000   0.5000000), wk =   0.0080000
        k(   12) = (  -0.4925000   0.5025000   0.4975000), wk =   0.0080000
        k(   13) = (  -0.4950000   0.5050000   0.4950000), wk =   0.0080000
        k(   14) = (  -0.4975000   0.5075000   0.4925000), wk =   0.0080000
        k(   15) = (  -0.5000000   0.5100000   0.4900000), wk =   0.0080000
        k(   16) = (  -0.4875000   0.5025000   0.5025000), wk =   0.0080000
        k(   17) = (  -0.4900000   0.5050000   0.5000000), wk =   0.0080000
        k(   18) = (  -0.4925000   0.5075000   0.4975000), wk =   0.0080000
        k(   19) = (  -0.4950000   0.5100000   0.4950000), wk =   0.0080000
        k(   20) = (  -0.4975000   0.5125000   0.4925000), wk =   0.0080000
        k(   21) = (  -0.4850000   0.5050000   0.5050000), wk =   0.0080000
        k(   22) = (  -0.4875000   0.5075000   0.5025000), wk =   0.0080000
        k(   23) = (  -0.4900000   0.5100000   0.5000000), wk =   0.0080000
        k(   24) = (  -0.4925000   0.5125000   0.4975000), wk =   0.0080000
        k(   25) = (  -0.4950000   0.5150000   0.4950000), wk =   0.0080000
        k(   26) = (  -0.4975000   0.4925000   0.4975000), wk =   0.0080000
        k(   27) = (  -0.5000000   0.4950000   0.4950000), wk =   0.0080000
        k(   28) = (  -0.5025000   0.4975000   0.4925000), wk =   0.0080000
        k(   29) = (  -0.5050000   0.5000000   0.4900000), wk =   0.0080000
        k(   30) = (  -0.5075000   0.5025000   0.4875000), wk =   0.0080000
        k(   31) = (  -0.4950000   0.4950000   0.5000000), wk =   0.0080000
        k(   32) = (  -0.4975000   0.4975000   0.4975000), wk =   0.0080000
        k(   33) = (  -0.5000000   0.5000000   0.4950000), wk =   0.0080000
        k(   34) = (  -0.5025000   0.5025000   0.4925000), wk =   0.0080000
        k(   35) = (  -0.5050000   0.5050000   0.4900000), wk =   0.0080000
        k(   36) = (  -0.4925000   0.4975000   0.5025000), wk =   0.0080000
        k(   37) = (  -0.4950000   0.5000000   0.5000000), wk =   0.0080000
        k(   38) = (  -0.4975000   0.5025000   0.4975000), wk =   0.0080000
        k(   39) = (  -0.5000000   0.5050000   0.4950000), wk =   0.0080000
        k(   40) = (  -0.5025000   0.5075000   0.4925000), wk =   0.0080000
        k(   41) = (  -0.4900000   0.5000000   0.5050000), wk =   0.0080000
        k(   42) = (  -0.4925000   0.5025000   0.5025000), wk =   0.0080000
        k(   43) = (  -0.4950000   0.5050000   0.5000000), wk =   0.0080000
        k(   44) = (  -0.4975000   0.5075000   0.4975000), wk =   0.0080000
        k(   45) = (  -0.5000000   0.5100000   0.4950000), wk =   0.0080000
        k(   46) = (  -0.4875000   0.5025000   0.5075000), wk =   0.0080000
        k(   47) = (  -0.4900000   0.5050000   0.5050000), wk =   0.0080000
        k(   48) = (  -0.4925000   0.5075000   0.5025000), wk =   0.0080000
        k(   49) = (  -0.4950000   0.5100000   0.5000000), wk =   0.0080000
        k(   50) = (  -0.4975000   0.5125000   0.4975000), wk =   0.0080000
        k(   51) = (  -0.5000000   0.4900000   0.5000000), wk =   0.0080000
        k(   52) = (  -0.5025000   0.4925000   0.4975000), wk =   0.0080000
        k(   53) = (  -0.5050000   0.4950000   0.4950000), wk =   0.0080000
        k(   54) = (  -0.5075000   0.4975000   0.4925000), wk =   0.0080000
        k(   55) = (  -0.5100000   0.5000000   0.4900000), wk =   0.0080000
        k(   56) = (  -0.4975000   0.4925000   0.5025000), wk =   0.0080000
        k(   57) = (  -0.5000000   0.4950000   0.5000000), wk =   0.0080000
        k(   58) = (  -0.5025000   0.4975000   0.4975000), wk =   0.0080000
        k(   59) = (  -0.5050000   0.5000000   0.4950000), wk =   0.0080000
        k(   60) = (  -0.5075000   0.5025000   0.4925000), wk =   0.0080000
        k(   61) = (  -0.4950000   0.4950000   0.5050000), wk =   0.0080000
        k(   62) = (  -0.4975000   0.4975000   0.5025000), wk =   0.0080000
        k(   63) = (  -0.5000000   0.5000000   0.5000000), wk =   0.0080000
        k(   64) = (  -0.5025000   0.5025000   0.4975000), wk =   0.0080000
        k(   65) = (  -0.5050000   0.5050000   0.4950000), wk =   0.0080000
        k(   66) = (  -0.4925000   0.4975000   0.5075000), wk =   0.0080000
        k(   67) = (  -0.4950000   0.5000000   0.5050000), wk =   0.0080000
        k(   68) = (  -0.4975000   0.5025000   0.5025000), wk =   0.0080000
        k(   69) = (  -0.5000000   0.5050000   0.5000000), wk =   0.0080000
        k(   70) = (  -0.5025000   0.5075000   0.4975000), wk =   0.0080000
        k(   71) = (  -0.4900000   0.5000000   0.5100000), wk =   0.0080000
        k(   72) = (  -0.4925000   0.5025000   0.5075000), wk =   0.0080000
        k(   73) = (  -0.4950000   0.5050000   0.5050000), wk =   0.0080000
        k(   74) = (  -0.4975000   0.5075000   0.5025000), wk =   0.0080000
        k(   75) = (  -0.5000000   0.5100000   0.5000000), wk =   0.0080000
        k(   76) = (  -0.5025000   0.4875000   0.5025000), wk =   0.0080000
        k(   77) = (  -0.5050000   0.4900000   0.5000000), wk =   0.0080000
        k(   78) = (  -0.5075000   0.4925000   0.4975000), wk =   0.0080000
        k(   79) = (  -0.5100000   0.4950000   0.4950000), wk =   0.0080000
        k(   80) = (  -0.5125000   0.4975000   0.4925000), wk =   0.0080000
        k(   81) = (  -0.5000000   0.4900000   0.5050000), wk =   0.0080000
        k(   82) = (  -0.5025000   0.4925000   0.5025000), wk =   0.0080000
        k(   83) = (  -0.5050000   0.4950000   0.5000000), wk =   0.0080000
        k(   84) = (  -0.5075000   0.4975000   0.4975000), wk =   0.0080000
        k(   85) = (  -0.5100000   0.5000000   0.4950000), wk =   0.0080000
        k(   86) = (  -0.4975000   0.4925000   0.5075000), wk =   0.0080000
        k(   87) = (  -0.5000000   0.4950000   0.5050000), wk =   0.0080000
        k(   88) = (  -0.5025000   0.4975000   0.5025000), wk =   0.0080000
        k(   89) = (  -0.5050000   0.5000000   0.5000000), wk =   0.0080000
        k(   90) = (  -0.5075000   0.5025000   0.4975000), wk =   0.0080000
        k(   91) = (  -0.4950000   0.4950000   0.5100000), wk =   0.0080000
        k(   92) = (  -0.4975000   0.4975000   0.5075000), wk =   0.0080000
        k(   93) = (  -0.5000000   0.5000000   0.5050000), wk =   0.0080000
        k(   94) = (  -0.5025000   0.5025000   0.5025000), wk =   0.0080000
        k(   95) = (  -0.5050000   0.5050000   0.5000000), wk =   0.0080000
        k(   96) = (  -0.4925000   0.4975000   0.5125000), wk =   0.0080000
        k(   97) = (  -0.4950000   0.5000000   0.5100000), wk =   0.0080000
        k(   98) = (  -0.4975000   0.5025000   0.5075000), wk =   0.0080000
        k(   99) = (  -0.5000000   0.5050000   0.5050000), wk =   0.0080000
        k(  100) = (  -0.5025000   0.5075000   0.5025000), wk =   0.0080000
        k(  101) = (  -0.5050000   0.4850000   0.5050000), wk =   0.0080000
        k(  102) = (  -0.5075000   0.4875000   0.5025000), wk =   0.0080000
        k(  103) = (  -0.5100000   0.4900000   0.5000000), wk =   0.0080000
        k(  104) = (  -0.5125000   0.4925000   0.4975000), wk =   0.0080000
        k(  105) = (  -0.5150000   0.4950000   0.4950000), wk =   0.0080000
        k(  106) = (  -0.5025000   0.4875000   0.5075000), wk =   0.0080000
        k(  107) = (  -0.5050000   0.4900000   0.5050000), wk =   0.0080000
        k(  108) = (  -0.5075000   0.4925000   0.5025000), wk =   0.0080000
        k(  109) = (  -0.5100000   0.4950000   0.5000000), wk =   0.0080000
        k(  110) = (  -0.5125000   0.4975000   0.4975000), wk =   0.0080000
        k(  111) = (  -0.5000000   0.4900000   0.5100000), wk =   0.0080000
        k(  112) = (  -0.5025000   0.4925000   0.5075000), wk =   0.0080000
        k(  113) = (  -0.5050000   0.4950000   0.5050000), wk =   0.0080000
        k(  114) = (  -0.5075000   0.4975000   0.5025000), wk =   0.0080000
        k(  115) = (  -0.5100000   0.5000000   0.5000000), wk =   0.0080000
        k(  116) = (  -0.4975000   0.4925000   0.5125000), wk =   0.0080000
        k(  117) = (  -0.5000000   0.4950000   0.5100000), wk =   0.0080000
        k(  118) = (  -0.5025000   0.4975000   0.5075000), wk =   0.0080000
        k(  119) = (  -0.5050000   0.5000000   0.5050000), wk =   0.0080000
        k(  120) = (  -0.5075000   0.5025000   0.5025000), wk =   0.0080000
        k(  121) = (  -0.4950000   0.4950000   0.5150000), wk =   0.0080000
        k(  122) = (  -0.4975000   0.4975000   0.5125000), wk =   0.0080000
        k(  123) = (  -0.5000000   0.5000000   0.5100000), wk =   0.0080000
        k(  124) = (  -0.5025000   0.5025000   0.5075000), wk =   0.0080000
        k(  125) = (  -0.5050000   0.5050000   0.5050000), wk =   0.0080000

                       cryst. coord.
        k(    1) = (   0.4950000   0.4950000   0.4950000), wk =   0.0080000
        k(    2) = (   0.4950000   0.4950000   0.4975000), wk =   0.0080000
        k(    3) = (   0.4950000   0.4950000   0.5000000), wk =   0.0080000
        k(    4) = (   0.4950000   0.4950000   0.5025000), wk =   0.0080000
        k(    5) = (   0.4950000   0.4950000   0.5050000), wk =   0.0080000
        k(    6) = (   0.4950000   0.4975000   0.4950000), wk =   0.0080000
        k(    7) = (   0.4950000   0.4975000   0.4975000), wk =   0.0080000
        k(    8) = (   0.4950000   0.4975000   0.5000000), wk =   0.0080000
        k(    9) = (   0.4950000   0.4975000   0.5025000), wk =   0.0080000
        k(   10) = (   0.4950000   0.4975000   0.5050000), wk =   0.0080000
        k(   11) = (   0.4950000   0.5000000   0.4950000), wk =   0.0080000
        k(   12) = (   0.4950000   0.5000000   0.4975000), wk =   0.0080000
        k(   13) = (   0.4950000   0.5000000   0.5000000), wk =   0.0080000
        k(   14) = (   0.4950000   0.5000000   0.5025000), wk =   0.0080000
        k(   15) = (   0.4950000   0.5000000   0.5050000), wk =   0.0080000
        k(   16) = (   0.4950000   0.5025000   0.4950000), wk =   0.0080000
        k(   17) = (   0.4950000   0.5025000   0.4975000), wk =   0.0080000
        k(   18) = (   0.4950000   0.5025000   0.5000000), wk =   0.0080000
        k(   19) = (   0.4950000   0.5025000   0.5025000), wk =   0.0080000
        k(   20) = (   0.4950000   0.5025000   0.5050000), wk =   0.0080000
        k(   21) = (   0.4950000   0.5050000   0.4950000), wk =   0.0080000
        k(   22) = (   0.4950000   0.5050000   0.4975000), wk =   0.0080000
        k(   23) = (   0.4950000   0.5050000   0.5000000), wk =   0.0080000
        k(   24) = (   0.4950000   0.5050000   0.5025000), wk =   0.0080000
        k(   25) = (   0.4950000   0.5050000   0.5050000), wk =   0.0080000
        k(   26) = (   0.4975000   0.4950000   0.4950000), wk =   0.0080000
        k(   27) = (   0.4975000   0.4950000   0.4975000), wk =   0.0080000
        k(   28) = (   0.4975000   0.4950000   0.5000000), wk =   0.0080000
        k(   29) = (   0.4975000   0.4950000   0.5025000), wk =   0.0080000
        k(   30) = (   0.4975000   0.4950000   0.5050000), wk =   0.0080000
        k(   31) = (   0.4975000   0.4975000   0.4950000), wk =   0.0080000
        k(   32) = (   0.4975000   0.4975000   0.4975000), wk =   0.0080000
        k(   33) = (   0.4975000   0.4975000   0.5000000), wk =   0.0080000
        k(   34) = (   0.4975000   0.4975000   0.5025000), wk =   0.0080000
        k(   35) = (   0.4975000   0.4975000   0.5050000), wk =   0.0080000
        k(   36) = (   0.4975000   0.5000000   0.4950000), wk =   0.0080000
        k(   37) = (   0.4975000   0.5000000   0.4975000), wk =   0.0080000
        k(   38) = (   0.4975000   0.5000000   0.5000000), wk =   0.0080000
        k(   39) = (   0.4975000   0.5000000   0.5025000), wk =   0.0080000
        k(   40) = (   0.4975000   0.5000000   0.5050000), wk =   0.0080000
        k(   41) = (   0.4975000   0.5025000   0.4950000), wk =   0.0080000
        k(   42) = (   0.4975000   0.5025000   0.4975000), wk =   0.0080000
        k(   43) = (   0.4975000   0.5025000   0.5000000), wk =   0.0080000
        k(   44) = (   0.4975000   0.5025000   0.5025000), wk =   0.0080000
        k(   45) = (   0.4975000   0.5025000   0.5050000), wk =   0.0080000
        k(   46) = (   0.4975000   0.5050000   0.4950000), wk =   0.0080000
        k(   47) = (   0.4975000   0.5050000   0.4975000), wk =   0.0080000
        k(   48) = (   0.4975000   0.5050000   0.5000000), wk =   0.0080000
        k(   49) = (   0.4975000   0.5050000   0.5025000), wk =   0.0080000
        k(   50) = (   0.4975000   0.5050000   0.5050000), wk =   0.0080000
        k(   51) = (   0.5000000   0.4950000   0.4950000), wk =   0.0080000
        k(   52) = (   0.5000000   0.4950000   0.4975000), wk =   0.0080000
        k(   53) = (   0.5000000   0.4950000   0.5000000), wk =   0.0080000
        k(   54) = (   0.5000000   0.4950000   0.5025000), wk =   0.0080000
        k(   55) = (   0.5000000   0.4950000   0.5050000), wk =   0.0080000
        k(   56) = (   0.5000000   0.4975000   0.4950000), wk =   0.0080000
        k(   57) = (   0.5000000   0.4975000   0.4975000), wk =   0.0080000
        k(   58) = (   0.5000000   0.4975000   0.5000000), wk =   0.0080000
        k(   59) = (   0.5000000   0.4975000   0.5025000), wk =   0.0080000
        k(   60) = (   0.5000000   0.4975000   0.5050000), wk =   0.0080000
        k(   61) = (   0.5000000   0.5000000   0.4950000), wk =   0.0080000
        k(   62) = (   0.5000000   0.5000000   0.4975000), wk =   0.0080000
        k(   63) = (   0.5000000   0.5000000   0.5000000), wk =   0.0080000
        k(   64) = (   0.5000000   0.5000000   0.5025000), wk =   0.0080000
        k(   65) = (   0.5000000   0.5000000   0.5050000), wk =   0.0080000
        k(   66) = (   0.5000000   0.5025000   0.4950000), wk =   0.0080000
        k(   67) = (   0.5000000   0.5025000   0.4975000), wk =   0.0080000
        k(   68) = (   0.5000000   0.5025000   0.5000000), wk =   0.0080000
        k(   69) = (   0.5000000   0.5025000   0.5025000), wk =   0.0080000
        k(   70) = (   0.5000000   0.5025000   0.5050000), wk =   0.0080000
        k(   71) = (   0.5000000   0.5050000   0.4950000), wk =   0.0080000
        k(   72) = (   0.5000000   0.5050000   0.4975000), wk =   0.0080000
        k(   73) = (   0.5000000   0.5050000   0.5000000), wk =   0.0080000
        k(   74) = (   0.5000000   0.5050000   0.5025000), wk =   0.0080000
        k(   75) = (   0.5000000   0.5050000   0.5050000), wk =   0.0080000
        k(   76) = (   0.5025000   0.4950000   0.4950000), wk =   0.0080000
        k(   77) = (   0.5025000   0.4950000   0.4975000), wk =   0.0080000
        k(   78) = (   0.5025000   0.4950000   0.5000000), wk =   0.0080000
        k(   79) = (   0.5025000   0.4950000   0.5025000), wk =   0.0080000
        k(   80) = (   0.5025000   0.4950000   0.5050000), wk =   0.0080000
        k(   81) = (   0.5025000   0.4975000   0.4950000), wk =   0.0080000
        k(   82) = (   0.5025000   0.4975000   0.4975000), wk =   0.0080000
        k(   83) = (   0.5025000   0.4975000   0.5000000), wk =   0.0080000
        k(   84) = (   0.5025000   0.4975000   0.5025000), wk =   0.0080000
        k(   85) = (   0.5025000   0.4975000   0.5050000), wk =   0.0080000
        k(   86) = (   0.5025000   0.5000000   0.4950000), wk =   0.0080000
        k(   87) = (   0.5025000   0.5000000   0.4975000), wk =   0.0080000
        k(   88) = (   0.5025000   0.5000000   0.5000000), wk =   0.0080000
        k(   89) = (   0.5025000   0.5000000   0.5025000), wk =   0.0080000
        k(   90) = (   0.5025000   0.5000000   0.5050000), wk =   0.0080000
        k(   91) = (   0.5025000   0.5025000   0.4950000), wk =   0.0080000
        k(   92) = (   0.5025000   0.5025000   0.4975000), wk =   0.0080000
        k(   93) = (   0.5025000   0.5025000   0.5000000), wk =   0.0080000
        k(   94) = (   0.5025000   0.5025000   0.5025000), wk =   0.0080000
        k(   95) = (   0.5025000   0.5025000   0.5050000), wk =   0.0080000
        k(   96) = (   0.5025000   0.5050000   0.4950000), wk =   0.0080000
        k(   97) = (   0.5025000   0.5050000   0.4975000), wk =   0.0080000
        k(   98) = (   0.5025000   0.5050000   0.5000000), wk =   0.0080000
        k(   99) = (   0.5025000   0.5050000   0.5025000), wk =   0.0080000
        k(  100) = (   0.5025000   0.5050000   0.5050000), wk =   0.0080000
        k(  101) = (   0.5050000   0.4950000   0.4950000), wk =   0.0080000
        k(  102) = (   0.5050000   0.4950000   0.4975000), wk =   0.0080000
        k(  103) = (   0.5050000   0.4950000   0.5000000), wk =   0.0080000
        k(  104) = (   0.5050000   0.4950000   0.5025000), wk =   0.0080000
        k(  105) = (   0.5050000   0.4950000   0.5050000), wk =   0.0080000
        k(  106) = (   0.5050000   0.4975000   0.4950000), wk =   0.0080000
        k(  107) = (   0.5050000   0.4975000   0.4975000), wk =   0.0080000
        k(  108) = (   0.5050000   0.4975000   0.5000000), wk =   0.0080000
        k(  109) = (   0.5050000   0.4975000   0.5025000), wk =   0.0080000
        k(  110) = (   0.5050000   0.4975000   0.5050000), wk =   0.0080000
        k(  111) = (   0.5050000   0.5000000   0.4950000), wk =   0.0080000
        k(  112) = (   0.5050000   0.5000000   0.4975000), wk =   0.0080000
        k(  113) = (   0.5050000   0.5000000   0.5000000), wk =   0.0080000
        k(  114) = (   0.5050000   0.5000000   0.5025000), wk =   0.0080000
        k(  115) = (   0.5050000   0.5000000   0.5050000), wk =   0.0080000
        k(  116) = (   0.5050000   0.5025000   0.4950000), wk =   0.0080000
        k(  117) = (   0.5050000   0.5025000   0.4975000), wk =   0.0080000
        k(  118) = (   0.5050000   0.5025000   0.5000000), wk =   0.0080000
        k(  119) = (   0.5050000   0.5025000   0.5025000), wk =   0.0080000
        k(  120) = (   0.5050000   0.5025000   0.5050000), wk =   0.0080000
        k(  121) = (   0.5050000   0.5050000   0.4950000), wk =   0.0080000
        k(  122) = (   0.5050000   0.5050000   0.4975000), wk =   0.0080000
        k(  123) = (   0.5050000   0.5050000   0.5000000), wk =   0.0080000
        k(  124) = (   0.5050000   0.5050000   0.5025000), wk =   0.0080000
        k(  125) = (   0.5050000   0.5050000   0.5050000), wk =   0.0080000

     Dense  grid:    29627 G-vectors     FFT dimensions: (  45,  45,  45)

     Largest allocated arrays     est. size (Mb)     dimensions
        Kohn-Sham Wavefunctions         0.54 Mb     (    1482,   24)
        NL pseudopotentials             0.36 Mb     (     741,   32)
        Each V/rho on FFT grid          0.28 Mb     (   18225)
        Each G-vector array             0.05 Mb     (    5926)
        G-vector shells                 0.00 Mb     (     311)
     Largest temporary arrays     est. size (Mb)     dimensions
        Auxiliary wavefunctions         2.17 Mb     (    1482,   96)
        Each subspace H/S matrix        0.14 Mb     (      96,   96)
        Each <psi_i|beta_j> matrix      0.02 Mb     (      32,   2,   24)

     The potential is recalculated from file :
     /scratch/qichen/PbTe/large/PbTe_rel.save/charge-density.dat

     Starting wfc are   16 randomized atomic wfcs +    8 random wfc

     Band Structure Calculation
     Davidson diagonalization with overlap

     Computing kpt #:     1
     total cpu time spent up to now is        2.0 secs

     Computing kpt #:     2
     total cpu time spent up to now is        3.1 secs

     Computing kpt #:     3
     total cpu time spent up to now is        4.0 secs

     Computing kpt #:     4
     total cpu time spent up to now is        5.0 secs

     Computing kpt #:     5
     total cpu time spent up to now is        5.9 secs

     Computing kpt #:     6
     total cpu time spent up to now is        6.9 secs

     Computing kpt #:     7
     total cpu time spent up to now is        7.9 secs

     Computing kpt #:     8
     total cpu time spent up to now is        8.8 secs

     Computing kpt #:     9
     total cpu time spent up to now is        9.8 secs

     Computing kpt #:    10
     total cpu time spent up to now is       10.8 secs

     Computing kpt #:    11
     total cpu time spent up to now is       11.7 secs

     Computing kpt #:    12
     total cpu time spent up to now is       12.7 secs

     Computing kpt #:    13
     total cpu time spent up to now is       13.7 secs

     Computing kpt #:    14
     total cpu time spent up to now is       14.6 secs

     Computing kpt #:    15
     total cpu time spent up to now is       15.6 secs

     Computing kpt #:    16
     total cpu time spent up to now is       16.6 secs

     Computing kpt #:    17
     total cpu time spent up to now is       17.5 secs

     Computing kpt #:    18
     total cpu time spent up to now is       18.6 secs

     Computing kpt #:    19
     total cpu time spent up to now is       19.5 secs

     Computing kpt #:    20
     total cpu time spent up to now is       20.5 secs

     Computing kpt #:    21
     total cpu time spent up to now is       21.5 secs

     Computing kpt #:    22
     total cpu time spent up to now is       22.4 secs

     Computing kpt #:    23
     total cpu time spent up to now is       23.4 secs

     Computing kpt #:    24
     total cpu time spent up to now is       24.4 secs

     Computing kpt #:    25
     total cpu time spent up to now is       25.3 secs

     Computing kpt #:    26
     total cpu time spent up to now is       26.3 secs

     Computing kpt #:    27
     total cpu time spent up to now is       27.2 secs

     Computing kpt #:    28
     total cpu time spent up to now is       28.2 secs

     Computing kpt #:    29
     total cpu time spent up to now is       29.2 secs

     Computing kpt #:    30
     total cpu time spent up to now is       30.1 secs

     Computing kpt #:    31
     total cpu time spent up to now is       31.3 secs

     Computing kpt #:    32
     total cpu time spent up to now is       32.2 secs

     ethr =  1.00E-14,  avg # of iterations = 31.5

     total cpu time spent up to now is       32.2 secs

     End of band structure calculation

          k =-0.4950 0.4950 0.4950 (  3729 PWs)   bands (ev):

    -5.6404  -5.6404  -3.5222  -3.5222   3.9874   3.9874   4.6266   4.6266
     5.2140   5.2140   5.4643   5.4643   6.5231   6.5231   7.0706   7.0706
    13.9455  13.9455  14.5617  14.5617  15.0445  15.0445  15.1453  15.1453

          k =-0.4975 0.4975 0.4925 (  3722 PWs)   bands (ev):

    -5.6401  -5.6401  -3.5225  -3.5225   3.9872   3.9872   4.6256   4.6256
     5.2133   5.2133   5.4654   5.4654   6.5234   6.5234   7.0710   7.0710
    13.9472  13.9472  14.5603  14.5603  15.0461  15.0461  15.1451  15.1451

          k =-0.5000 0.5000 0.4900 (  3720 PWs)   bands (ev):

    -5.6398  -5.6398  -3.5227  -3.5227   3.9861   3.9861   4.6222   4.6222
     5.2117   5.2117   5.4685   5.4685   6.5251   6.5251   7.0727   7.0727
    13.9469  13.9469  14.5590  14.5590  15.0475  15.0475  15.1443  15.1443

          k =-0.5025 0.5025 0.4875 (  3725 PWs)   bands (ev):

    -5.6394  -5.6394  -3.5227  -3.5227   3.9842   3.9842   4.6167   4.6167
     5.2091   5.2091   5.4737   5.4737   6.5281   6.5281   7.0756   7.0756
    13.9445  13.9445  14.5578  14.5578  15.0487  15.0487  15.1429  15.1429

          k =-0.5050 0.5050 0.4850 (  3723 PWs)   bands (ev):

    -5.6391  -5.6391  -3.5225  -3.5225   3.9815   3.9815   4.6091   4.6091
     5.2055   5.2055   5.4807   5.4807   6.5323   6.5323   7.0798   7.0798
    13.9402  13.9402  14.5565  14.5565  15.0497  15.0497  15.1409  15.1409

          k =-0.4925 0.4975 0.4975 (  3722 PWs)   bands (ev):

    -5.6401  -5.6401  -3.5225  -3.5225   3.9872   3.9872   4.6256   4.6256
     5.2133   5.2133   5.4654   5.4654   6.5234   6.5234   7.0710   7.0710
    13.9472  13.9472  14.5603  14.5603  15.0461  15.0461  15.1451  15.1451

          k =-0.4950 0.5000 0.4950 (  3717 PWs)   bands (ev):

    -5.6398  -5.6398  -3.5228  -3.5228   3.9873   3.9873   4.6256   4.6256
     5.2132   5.2132   5.4654   5.4654   6.5232   6.5232   7.0709   7.0709
    13.9492  13.9492  14.5592  14.5592  15.0474  15.0474  15.1452  15.1452

          k =-0.4975 0.5025 0.4925 (  3720 PWs)   bands (ev):

    -5.6396  -5.6396  -3.5230  -3.5230   3.9866   3.9866   4.6234   4.6234
     5.2121   5.2121   5.4675   5.4675   6.5243   6.5243   7.0720   7.0720
    13.9492  13.9492  14.5582  14.5582  15.0485  15.0485  15.1446  15.1446

          k =-0.5000 0.5050 0.4900 (  3725 PWs)   bands (ev):

    -5.6394  -5.6394  -3.5230  -3.5230   3.9851   3.9851   4.6190   4.6190
     5.2100   5.2100   5.4716   5.4716   6.5267   6.5267   7.0743   7.0743
    13.9472  13.9472  14.5573  14.5573  15.0495  15.0495  15.1434  15.1434

          k =-0.5025 0.5075 0.4875 (  3726 PWs)   bands (ev):

    -5.6391  -5.6391  -3.5228  -3.5228   3.9828   3.9828   4.6124   4.6124
     5.2069   5.2069   5.4778   5.4778   6.5304   6.5304   7.0779   7.0779
    13.9432  13.9432  14.5565  14.5565  15.0502  15.0502  15.1416  15.1416

          k =-0.4900 0.5000 0.5000 (  3720 PWs)   bands (ev):

    -5.6398  -5.6398  -3.5227  -3.5227   3.9861   3.9861   4.6222   4.6222
     5.2117   5.2117   5.4685   5.4685   6.5251   6.5251   7.0727   7.0727
    13.9469  13.9469  14.5590  14.5590  15.0475  15.0475  15.1443  15.1443

          k =-0.4925 0.5025 0.4975 (  3720 PWs)   bands (ev):

    -5.6396  -5.6396  -3.5230  -3.5230   3.9866   3.9866   4.6234   4.6234
     5.2121   5.2121   5.4675   5.4675   6.5243   6.5243   7.0720   7.0720
    13.9492  13.9492  14.5582  14.5582  15.0485  15.0485  15.1446  15.1446

          k =-0.4950 0.5050 0.4950 (  3721 PWs)   bands (ev):

    -5.6395  -5.6395  -3.5231  -3.5231   3.9862   3.9862   4.6223   4.6223
     5.2116   5.2116   5.4685   5.4685   6.5249   6.5249   7.0725   7.0725
    13.9495  13.9495  14.5576  14.5576  15.0493  15.0493  15.1443  15.1443

          k =-0.4975 0.5075 0.4925 (  3725 PWs)   bands (ev):

    -5.6393  -5.6393  -3.5231  -3.5231   3.9851   3.9851   4.6190   4.6190
     5.2100   5.2100   5.4716   5.4716   6.5267   6.5267   7.0743   7.0743
    13.9479  13.9479  14.5570  14.5570  15.0500  15.0500  15.1434  15.1434

          k =-0.5000 0.5100 0.4900 (  3728 PWs)   bands (ev):

    -5.6391  -5.6391  -3.5229  -3.5229   3.9832   3.9832   4.6135   4.6135
     5.2074   5.2074   5.4768   5.4768   6.5298   6.5298   7.0773   7.0773
    13.9442  13.9442  14.5565  14.5565  15.0504  15.0504  15.1418  15.1418

          k =-0.4875 0.5025 0.5025 (  3725 PWs)   bands (ev):

    -5.6394  -5.6394  -3.5227  -3.5227   3.9842   3.9842   4.6167   4.6167
     5.2091   5.2091   5.4737   5.4737   6.5281   6.5281   7.0756   7.0756
    13.9445  13.9445  14.5578  14.5578  15.0487  15.0487  15.1429  15.1429

          k =-0.4900 0.5050 0.5000 (  3725 PWs)   bands (ev):

    -5.6394  -5.6394  -3.5230  -3.5230   3.9851   3.9851   4.6190   4.6190
     5.2100   5.2100   5.4716   5.4716   6.5267   6.5267   7.0743   7.0743
    13.9472  13.9472  14.5573  14.5573  15.0495  15.0495  15.1434  15.1434

          k =-0.4925 0.5075 0.4975 (  3725 PWs)   bands (ev):

    -5.6393  -5.6393  -3.5231  -3.5231   3.9851   3.9851   4.6190   4.6190
     5.2100   5.2100   5.4716   5.4716   6.5267   6.5267   7.0743   7.0743
    13.9479  13.9479  14.5570  14.5570  15.0500  15.0500  15.1434  15.1434

          k =-0.4950 0.5100 0.4950 (  3723 PWs)   bands (ev):

    -5.6392  -5.6392  -3.5230  -3.5230   3.9843   3.9843   4.6168   4.6168
     5.2089   5.2089   5.4737   5.4737   6.5279   6.5279   7.0755   7.0755
    13.9465  13.9465  14.5567  14.5567  15.0502  15.0502  15.1427  15.1427

          k =-0.4975 0.5125 0.4925 (  3726 PWs)   bands (ev):

    -5.6391  -5.6391  -3.5228  -3.5228   3.9828   3.9828   4.6124   4.6124
     5.2069   5.2069   5.4778   5.4778   6.5304   6.5304   7.0779   7.0779
    13.9432  13.9432  14.5565  14.5565  15.0502  15.0502  15.1416  15.1416

          k =-0.4850 0.5050 0.5050 (  3723 PWs)   bands (ev):

    -5.6391  -5.6391  -3.5225  -3.5225   3.9815   3.9815   4.6091   4.6091
     5.2055   5.2055   5.4807   5.4807   6.5323   6.5323   7.0798   7.0798
    13.9402  13.9402  14.5565  14.5565  15.0497  15.0497  15.1409  15.1409

          k =-0.4875 0.5075 0.5025 (  3726 PWs)   bands (ev):

    -5.6391  -5.6391  -3.5228  -3.5228   3.9828   3.9828   4.6124   4.6124
     5.2069   5.2069   5.4778   5.4778   6.5304   6.5304   7.0779   7.0779
    13.9432  13.9432  14.5565  14.5565  15.0502  15.0502  15.1416  15.1416

          k =-0.4900 0.5100 0.5000 (  3728 PWs)   bands (ev):

    -5.6391  -5.6391  -3.5229  -3.5229   3.9832   3.9832   4.6135   4.6135
     5.2074   5.2074   5.4768   5.4768   6.5298   6.5298   7.0773   7.0773
    13.9442  13.9442  14.5565  14.5565  15.0504  15.0504  15.1418  15.1418

          k =-0.4925 0.5125 0.4975 (  3726 PWs)   bands (ev):

    -5.6391  -5.6391  -3.5228  -3.5228   3.9828   3.9828   4.6124   4.6124
     5.2069   5.2069   5.4778   5.4778   6.5304   6.5304   7.0779   7.0779
    13.9432  13.9432  14.5565  14.5565  15.0502  15.0502  15.1416  15.1416

          k =-0.4950 0.5150 0.4950 (  3723 PWs)   bands (ev):

    -5.6391  -5.6391  -3.5225  -3.5225   3.9815   3.9815   4.6091   4.6091
     5.2055   5.2055   5.4807   5.4807   6.5323   6.5323   7.0798   7.0798
    13.9402  13.9402  14.5565  14.5565  15.0497  15.0497  15.1409  15.1409

          k =-0.4975 0.4925 0.4975 (  3722 PWs)   bands (ev):

    -5.6401  -5.6401  -3.5225  -3.5225   3.9872   3.9872   4.6256   4.6256
     5.2133   5.2133   5.4654   5.4654   6.5234   6.5234   7.0710   7.0710
    13.9472  13.9472  14.5603  14.5603  15.0461  15.0461  15.1451  15.1451

          k =-0.5000 0.4950 0.4950 (  3717 PWs)   bands (ev):

    -5.6398  -5.6398  -3.5228  -3.5228   3.9873   3.9873   4.6256   4.6256
     5.2132   5.2132   5.4654   5.4654   6.5232   6.5232   7.0709   7.0709
    13.9492  13.9492  14.5592  14.5592  15.0474  15.0474  15.1452  15.1452

          k =-0.5025 0.4975 0.4925 (  3720 PWs)   bands (ev):

    -5.6396  -5.6396  -3.5230  -3.5230   3.9866   3.9866   4.6234   4.6234
     5.2121   5.2121   5.4675   5.4675   6.5243   6.5243   7.0720   7.0720
    13.9492  13.9492  14.5582  14.5582  15.0485  15.0485  15.1446  15.1446

          k =-0.5050 0.5000 0.4900 (  3725 PWs)   bands (ev):

    -5.6394  -5.6394  -3.5230  -3.5230   3.9851   3.9851   4.6190   4.6190
     5.2100   5.2100   5.4716   5.4716   6.5267   6.5267   7.0743   7.0743
    13.9472  13.9472  14.5573  14.5573  15.0495  15.0495  15.1434  15.1434

          k =-0.5075 0.5025 0.4875 (  3726 PWs)   bands (ev):

    -5.6391  -5.6391  -3.5228  -3.5228   3.9828   3.9828   4.6124   4.6124
     5.2069   5.2069   5.4778   5.4778   6.5304   6.5304   7.0779   7.0779
    13.9432  13.9432  14.5565  14.5565  15.0502  15.0502  15.1416  15.1416

          k =-0.4950 0.4950 0.5000 (  3717 PWs)   bands (ev):

    -5.6398  -5.6398  -3.5228  -3.5228   3.9873   3.9873   4.6256   4.6256
     5.2132   5.2132   5.4654   5.4654   6.5232   6.5232   7.0709   7.0709
    13.9492  13.9492  14.5592  14.5592  15.0474  15.0474  15.1452  15.1452

          k =-0.4975 0.4975 0.4975 (  3708 PWs)   bands (ev):

    -5.6397  -5.6397  -3.5231  -3.5231   3.9877   3.9877   4.6268   4.6268
     5.2137   5.2137   5.4643   5.4643   6.5225   6.5225   7.0701   7.0701
    13.9516  13.9516  14.5584  14.5584  15.0483  15.0483  15.1457  15.1457

          k =-0.5000 0.5000 0.4950 (  3716 PWs)   bands (ev):

    -5.6395  -5.6395  -3.5232  -3.5232   3.9874   3.9874   4.6257   4.6257
     5.2131   5.2131   5.4654   5.4654   6.5230   6.5230   7.0707   7.0707
    13.9519  13.9519  14.5577  14.5577  15.0491  15.0491  15.1454  15.1454

          k =-0.5025 0.5025 0.4925 (  3723 PWs)   bands (ev):

    -5.6394  -5.6394  -3.5232  -3.5232   3.9863   3.9863   4.6223   4.6223
     5.2116   5.2116   5.4685   5.4685   6.5248   6.5248   7.0724   7.0724
    13.9502  13.9502  14.5572  14.5572  15.0497  15.0497  15.1444  15.1444

          k =-0.5050 0.5050 0.4900 (  3723 PWs)   bands (ev):

    -5.6392  -5.6392  -3.5230  -3.5230   3.9843   3.9843   4.6168   4.6168
     5.2089   5.2089   5.4737   5.4737   6.5279   6.5279   7.0755   7.0755
    13.9465  13.9465  14.5567  14.5567  15.0502  15.0502  15.1427  15.1427

          k =-0.4925 0.4975 0.5025 (  3720 PWs)   bands (ev):

    -5.6396  -5.6396  -3.5230  -3.5230   3.9866   3.9866   4.6234   4.6234
     5.2121   5.2121   5.4675   5.4675   6.5243   6.5243   7.0720   7.0720
    13.9492  13.9492  14.5582  14.5582  15.0485  15.0485  15.1446  15.1446

          k =-0.4950 0.5000 0.5000 (  3716 PWs)   bands (ev):

    -5.6395  -5.6395  -3.5232  -3.5232   3.9874   3.9874   4.6257   4.6257
     5.2131   5.2131   5.4654   5.4654   6.5230   6.5230   7.0707   7.0707
    13.9519  13.9519  14.5577  14.5577  15.0491  15.0491  15.1454  15.1454

          k =-0.4975 0.5025 0.4975 (  3715 PWs)   bands (ev):

    -5.6395  -5.6395  -3.5234  -3.5234   3.9875   3.9875   4.6257   4.6257
     5.2131   5.2131   5.4654   5.4654   6.5229   6.5229   7.0706   7.0706
    13.9526  13.9526  14.5573  14.5573  15.0495  15.0495  15.1454  15.1454

          k =-0.5000 0.5050 0.4950 (  3722 PWs)   bands (ev):

    -5.6394  -5.6394  -3.5233  -3.5233   3.9867   3.9867   4.6234   4.6234
     5.2121   5.2121   5.4675   5.4675   6.5241   6.5241   7.0718   7.0718
    13.9512  13.9512  14.5571  14.5571  15.0498  15.0498  15.1447  15.1447

          k =-0.5025 0.5075 0.4925 (  3725 PWs)   bands (ev):

    -5.6393  -5.6393  -3.5231  -3.5231   3.9851   3.9851   4.6190   4.6190
     5.2100   5.2100   5.4716   5.4716   6.5267   6.5267   7.0743   7.0743
    13.9479  13.9479  14.5570  14.5570  15.0500  15.0500  15.1434  15.1434

          k =-0.4900 0.5000 0.5050 (  3725 PWs)   bands (ev):

    -5.6394  -5.6394  -3.5230  -3.5230   3.9851   3.9851   4.6190   4.6190
     5.2100   5.2100   5.4716   5.4716   6.5267   6.5267   7.0743   7.0743
    13.9472  13.9472  14.5573  14.5573  15.0495  15.0495  15.1434  15.1434

          k =-0.4925 0.5025 0.5025 (  3723 PWs)   bands (ev):

    -5.6394  -5.6394  -3.5232  -3.5232   3.9863   3.9863   4.6223   4.6223
     5.2116   5.2116   5.4685   5.4685   6.5248   6.5248   7.0724   7.0724
    13.9502  13.9502  14.5572  14.5572  15.0497  15.0497  15.1444  15.1444

          k =-0.4950 0.5050 0.5000 (  3722 PWs)   bands (ev):

    -5.6394  -5.6394  -3.5233  -3.5233   3.9867   3.9867   4.6234   4.6234
     5.2121   5.2121   5.4675   5.4675   6.5241   6.5241   7.0718   7.0718
    13.9512  13.9512  14.5571  14.5571  15.0498  15.0498  15.1447  15.1447

          k =-0.4975 0.5075 0.4975 (  3723 PWs)   bands (ev):

    -5.6394  -5.6394  -3.5232  -3.5232   3.9863   3.9863   4.6223   4.6223
     5.2116   5.2116   5.4685   5.4685   6.5248   6.5248   7.0724   7.0724
    13.9502  13.9502  14.5572  14.5572  15.0497  15.0497  15.1444  15.1444

          k =-0.5000 0.5100 0.4950 (  3725 PWs)   bands (ev):

    -5.6394  -5.6394  -3.5230  -3.5230   3.9851   3.9851   4.6190   4.6190
     5.2100   5.2100   5.4716   5.4716   6.5267   6.5267   7.0743   7.0743
    13.9472  13.9472  14.5573  14.5573  15.0495  15.0495  15.1434  15.1434

          k =-0.4875 0.5025 0.5075 (  3726 PWs)   bands (ev):

    -5.6391  -5.6391  -3.5228  -3.5228   3.9828   3.9828   4.6124   4.6124
     5.2069   5.2069   5.4778   5.4778   6.5304   6.5304   7.0779   7.0779
    13.9432  13.9432  14.5565  14.5565  15.0502  15.0502  15.1416  15.1416

          k =-0.4900 0.5050 0.5050 (  3723 PWs)   bands (ev):

    -5.6392  -5.6392  -3.5230  -3.5230   3.9843   3.9843   4.6168   4.6168
     5.2089   5.2089   5.4737   5.4737   6.5279   6.5279   7.0755   7.0755
    13.9465  13.9465  14.5567  14.5567  15.0502  15.0502  15.1427  15.1427

          k =-0.4925 0.5075 0.5025 (  3725 PWs)   bands (ev):

    -5.6393  -5.6393  -3.5231  -3.5231   3.9851   3.9851   4.6190   4.6190
     5.2100   5.2100   5.4716   5.4716   6.5267   6.5267   7.0743   7.0743
    13.9479  13.9479  14.5570  14.5570  15.0500  15.0500  15.1434  15.1434

          k =-0.4950 0.5100 0.5000 (  3725 PWs)   bands (ev):

    -5.6394  -5.6394  -3.5230  -3.5230   3.9851   3.9851   4.6190   4.6190
     5.2100   5.2100   5.4716   5.4716   6.5267   6.5267   7.0743   7.0743
    13.9472  13.9472  14.5573  14.5573  15.0495  15.0495  15.1434  15.1434

          k =-0.4975 0.5125 0.4975 (  3725 PWs)   bands (ev):

    -5.6394  -5.6394  -3.5227  -3.5227   3.9842   3.9842   4.6167   4.6167
     5.2091   5.2091   5.4737   5.4737   6.5281   6.5281   7.0756   7.0756
    13.9445  13.9445  14.5578  14.5578  15.0487  15.0487  15.1429  15.1429

          k =-0.5000 0.4900 0.5000 (  3720 PWs)   bands (ev):

    -5.6398  -5.6398  -3.5227  -3.5227   3.9861   3.9861   4.6222   4.6222
     5.2117   5.2117   5.4685   5.4685   6.5251   6.5251   7.0727   7.0727
    13.9469  13.9469  14.5590  14.5590  15.0475  15.0475  15.1443  15.1443

          k =-0.5025 0.4925 0.4975 (  3720 PWs)   bands (ev):

    -5.6396  -5.6396  -3.5230  -3.5230   3.9866   3.9866   4.6234   4.6234
     5.2121   5.2121   5.4675   5.4675   6.5243   6.5243   7.0720   7.0720
    13.9492  13.9492  14.5582  14.5582  15.0485  15.0485  15.1446  15.1446

          k =-0.5050 0.4950 0.4950 (  3721 PWs)   bands (ev):

    -5.6395  -5.6395  -3.5231  -3.5231   3.9862   3.9862   4.6223   4.6223
     5.2116   5.2116   5.4685   5.4685   6.5249   6.5249   7.0725   7.0725
    13.9495  13.9495  14.5576  14.5576  15.0493  15.0493  15.1443  15.1443

          k =-0.5075 0.4975 0.4925 (  3725 PWs)   bands (ev):

    -5.6393  -5.6393  -3.5231  -3.5231   3.9851   3.9851   4.6190   4.6190
     5.2100   5.2100   5.4716   5.4716   6.5267   6.5267   7.0743   7.0743
    13.9479  13.9479  14.5570  14.5570  15.0500  15.0500  15.1434  15.1434

          k =-0.5100 0.5000 0.4900 (  3728 PWs)   bands (ev):

    -5.6391  -5.6391  -3.5229  -3.5229   3.9832   3.9832   4.6135   4.6135
     5.2074   5.2074   5.4768   5.4768   6.5298   6.5298   7.0773   7.0773
    13.9442  13.9442  14.5565  14.5565  15.0504  15.0504  15.1418  15.1418

          k =-0.4975 0.4925 0.5025 (  3720 PWs)   bands (ev):

    -5.6396  -5.6396  -3.5230  -3.5230   3.9866   3.9866   4.6234   4.6234
     5.2121   5.2121   5.4675   5.4675   6.5243   6.5243   7.0720   7.0720
    13.9492  13.9492  14.5582  14.5582  15.0485  15.0485  15.1446  15.1446

          k =-0.5000 0.4950 0.5000 (  3716 PWs)   bands (ev):

    -5.6395  -5.6395  -3.5232  -3.5232   3.9874   3.9874   4.6257   4.6257
     5.2131   5.2131   5.4654   5.4654   6.5230   6.5230   7.0707   7.0707
    13.9519  13.9519  14.5577  14.5577  15.0491  15.0491  15.1454  15.1454

          k =-0.5025 0.4975 0.4975 (  3715 PWs)   bands (ev):

    -5.6395  -5.6395  -3.5234  -3.5234   3.9875   3.9875   4.6257   4.6257
     5.2131   5.2131   5.4654   5.4654   6.5229   6.5229   7.0706   7.0706
    13.9526  13.9526  14.5573  14.5573  15.0495  15.0495  15.1454  15.1454

          k =-0.5050 0.5000 0.4950 (  3722 PWs)   bands (ev):

    -5.6394  -5.6394  -3.5233  -3.5233   3.9867   3.9867   4.6234   4.6234
     5.2121   5.2121   5.4675   5.4675   6.5241   6.5241   7.0718   7.0718
    13.9512  13.9512  14.5571  14.5571  15.0498  15.0498  15.1447  15.1447

          k =-0.5075 0.5025 0.4925 (  3725 PWs)   bands (ev):

    -5.6393  -5.6393  -3.5231  -3.5231   3.9851   3.9851   4.6190   4.6190
     5.2100   5.2100   5.4716   5.4716   6.5267   6.5267   7.0743   7.0743
    13.9479  13.9479  14.5570  14.5570  15.0500  15.0500  15.1434  15.1434

          k =-0.4950 0.4950 0.5050 (  3721 PWs)   bands (ev):

    -5.6395  -5.6395  -3.5231  -3.5231   3.9862   3.9862   4.6223   4.6223
     5.2116   5.2116   5.4685   5.4685   6.5249   6.5249   7.0725   7.0725
    13.9495  13.9495  14.5576  14.5576  15.0493  15.0493  15.1443  15.1443

          k =-0.4975 0.4975 0.5025 (  3715 PWs)   bands (ev):

    -5.6395  -5.6395  -3.5234  -3.5234   3.9875   3.9875   4.6257   4.6257
     5.2131   5.2131   5.4654   5.4654   6.5229   6.5229   7.0706   7.0706
    13.9526  13.9526  14.5573  14.5573  15.0495  15.0495  15.1454  15.1454

          k =-0.5000 0.5000 0.5000 (  3708 PWs)   bands (ev):

    -5.6395  -5.6395  -3.5234  -3.5234   3.9879   3.9879   4.6268   4.6268
     5.2136   5.2136   5.4643   5.4643   6.5223   6.5223   7.0700   7.0700
    13.9536  13.9536  14.5573  14.5573  15.0496  15.0496  15.1458  15.1458

          k =-0.5025 0.5025 0.4975 (  3715 PWs)   bands (ev):

    -5.6395  -5.6395  -3.5234  -3.5234   3.9875   3.9875   4.6257   4.6257
     5.2131   5.2131   5.4654   5.4654   6.5229   6.5229   7.0706   7.0706
    13.9526  13.9526  14.5573  14.5573  15.0495  15.0495  15.1454  15.1454

          k =-0.5050 0.5050 0.4950 (  3721 PWs)   bands (ev):

    -5.6395  -5.6395  -3.5231  -3.5231   3.9862   3.9862   4.6223   4.6223
     5.2116   5.2116   5.4685   5.4685   6.5249   6.5249   7.0725   7.0725
    13.9495  13.9495  14.5576  14.5576  15.0493  15.0493  15.1443  15.1443

          k =-0.4925 0.4975 0.5075 (  3725 PWs)   bands (ev):

    -5.6393  -5.6393  -3.5231  -3.5231   3.9851   3.9851   4.6190   4.6190
     5.2100   5.2100   5.4716   5.4716   6.5267   6.5267   7.0743   7.0743
    13.9479  13.9479  14.5570  14.5570  15.0500  15.0500  15.1434  15.1434

          k =-0.4950 0.5000 0.5050 (  3722 PWs)   bands (ev):

    -5.6394  -5.6394  -3.5233  -3.5233   3.9867   3.9867   4.6234   4.6234
     5.2121   5.2121   5.4675   5.4675   6.5241   6.5241   7.0718   7.0718
    13.9512  13.9512  14.5571  14.5571  15.0498  15.0498  15.1447  15.1447

          k =-0.4975 0.5025 0.5025 (  3715 PWs)   bands (ev):

    -5.6395  -5.6395  -3.5234  -3.5234   3.9875   3.9875   4.6257   4.6257
     5.2131   5.2131   5.4654   5.4654   6.5229   6.5229   7.0706   7.0706
    13.9526  13.9526  14.5573  14.5573  15.0495  15.0495  15.1454  15.1454

          k =-0.5000 0.5050 0.5000 (  3716 PWs)   bands (ev):

    -5.6395  -5.6395  -3.5232  -3.5232   3.9874   3.9874   4.6257   4.6257
     5.2131   5.2131   5.4654   5.4654   6.5230   6.5230   7.0707   7.0707
    13.9519  13.9519  14.5577  14.5577  15.0491  15.0491  15.1454  15.1454

          k =-0.5025 0.5075 0.4975 (  3720 PWs)   bands (ev):

    -5.6396  -5.6396  -3.5230  -3.5230   3.9866   3.9866   4.6234   4.6234
     5.2121   5.2121   5.4675   5.4675   6.5243   6.5243   7.0720   7.0720
    13.9492  13.9492  14.5582  14.5582  15.0485  15.0485  15.1446  15.1446

          k =-0.4900 0.5000 0.5100 (  3728 PWs)   bands (ev):

    -5.6391  -5.6391  -3.5229  -3.5229   3.9832   3.9832   4.6135   4.6135
     5.2074   5.2074   5.4768   5.4768   6.5298   6.5298   7.0773   7.0773
    13.9442  13.9442  14.5565  14.5565  15.0504  15.0504  15.1418  15.1418

          k =-0.4925 0.5025 0.5075 (  3725 PWs)   bands (ev):

    -5.6393  -5.6393  -3.5231  -3.5231   3.9851   3.9851   4.6190   4.6190
     5.2100   5.2100   5.4716   5.4716   6.5267   6.5267   7.0743   7.0743
    13.9479  13.9479  14.5570  14.5570  15.0500  15.0500  15.1434  15.1434

          k =-0.4950 0.5050 0.5050 (  3721 PWs)   bands (ev):

    -5.6395  -5.6395  -3.5231  -3.5231   3.9862   3.9862   4.6223   4.6223
     5.2116   5.2116   5.4685   5.4685   6.5249   6.5249   7.0725   7.0725
    13.9495  13.9495  14.5576  14.5576  15.0493  15.0493  15.1443  15.1443

          k =-0.4975 0.5075 0.5025 (  3720 PWs)   bands (ev):

    -5.6396  -5.6396  -3.5230  -3.5230   3.9866   3.9866   4.6234   4.6234
     5.2121   5.2121   5.4675   5.4675   6.5243   6.5243   7.0720   7.0720
    13.9492  13.9492  14.5582  14.5582  15.0485  15.0485  15.1446  15.1446

          k =-0.5000 0.5100 0.5000 (  3720 PWs)   bands (ev):

    -5.6398  -5.6398  -3.5227  -3.5227   3.9861   3.9861   4.6222   4.6222
     5.2117   5.2117   5.4685   5.4685   6.5251   6.5251   7.0727   7.0727
    13.9469  13.9469  14.5590  14.5590  15.0475  15.0475  15.1443  15.1443

          k =-0.5025 0.4875 0.5025 (  3725 PWs)   bands (ev):

    -5.6394  -5.6394  -3.5227  -3.5227   3.9842   3.9842   4.6167   4.6167
     5.2091   5.2091   5.4737   5.4737   6.5281   6.5281   7.0756   7.0756
    13.9445  13.9445  14.5578  14.5578  15.0487  15.0487  15.1429  15.1429

          k =-0.5050 0.4900 0.5000 (  3725 PWs)   bands (ev):

    -5.6394  -5.6394  -3.5230  -3.5230   3.9851   3.9851   4.6190   4.6190
     5.2100   5.2100   5.4716   5.4716   6.5267   6.5267   7.0743   7.0743
    13.9472  13.9472  14.5573  14.5573  15.0495  15.0495  15.1434  15.1434

          k =-0.5075 0.4925 0.4975 (  3725 PWs)   bands (ev):

    -5.6393  -5.6393  -3.5231  -3.5231   3.9851   3.9851   4.6190   4.6190
     5.2100   5.2100   5.4716   5.4716   6.5267   6.5267   7.0743   7.0743
    13.9479  13.9479  14.5570  14.5570  15.0500  15.0500  15.1434  15.1434

          k =-0.5100 0.4950 0.4950 (  3723 PWs)   bands (ev):

    -5.6392  -5.6392  -3.5230  -3.5230   3.9843   3.9843   4.6168   4.6168
     5.2089   5.2089   5.4737   5.4737   6.5279   6.5279   7.0755   7.0755
    13.9465  13.9465  14.5567  14.5567  15.0502  15.0502  15.1427  15.1427

          k =-0.5125 0.4975 0.4925 (  3726 PWs)   bands (ev):

    -5.6391  -5.6391  -3.5228  -3.5228   3.9828   3.9828   4.6124   4.6124
     5.2069   5.2069   5.4778   5.4778   6.5304   6.5304   7.0779   7.0779
    13.9432  13.9432  14.5565  14.5565  15.0502  15.0502  15.1416  15.1416

          k =-0.5000 0.4900 0.5050 (  3725 PWs)   bands (ev):

    -5.6394  -5.6394  -3.5230  -3.5230   3.9851   3.9851   4.6190   4.6190
     5.2100   5.2100   5.4716   5.4716   6.5267   6.5267   7.0743   7.0743
    13.9472  13.9472  14.5573  14.5573  15.0495  15.0495  15.1434  15.1434

          k =-0.5025 0.4925 0.5025 (  3723 PWs)   bands (ev):

    -5.6394  -5.6394  -3.5232  -3.5232   3.9863   3.9863   4.6223   4.6223
     5.2116   5.2116   5.4685   5.4685   6.5248   6.5248   7.0724   7.0724
    13.9502  13.9502  14.5572  14.5572  15.0497  15.0497  15.1444  15.1444

          k =-0.5050 0.4950 0.5000 (  3722 PWs)   bands (ev):

    -5.6394  -5.6394  -3.5233  -3.5233   3.9867   3.9867   4.6234   4.6234
     5.2121   5.2121   5.4675   5.4675   6.5241   6.5241   7.0718   7.0718
    13.9512  13.9512  14.5571  14.5571  15.0498  15.0498  15.1447  15.1447

          k =-0.5075 0.4975 0.4975 (  3723 PWs)   bands (ev):

    -5.6394  -5.6394  -3.5232  -3.5232   3.9863   3.9863   4.6223   4.6223
     5.2116   5.2116   5.4685   5.4685   6.5248   6.5248   7.0724   7.0724
    13.9502  13.9502  14.5572  14.5572  15.0497  15.0497  15.1444  15.1444

          k =-0.5100 0.5000 0.4950 (  3725 PWs)   bands (ev):

    -5.6394  -5.6394  -3.5230  -3.5230   3.9851   3.9851   4.6190   4.6190
     5.2100   5.2100   5.4716   5.4716   6.5267   6.5267   7.0743   7.0743
    13.9472  13.9472  14.5573  14.5573  15.0495  15.0495  15.1434  15.1434

          k =-0.4975 0.4925 0.5075 (  3725 PWs)   bands (ev):

    -5.6393  -5.6393  -3.5231  -3.5231   3.9851   3.9851   4.6190   4.6190
     5.2100   5.2100   5.4716   5.4716   6.5267   6.5267   7.0743   7.0743
    13.9479  13.9479  14.5570  14.5570  15.0500  15.0500  15.1434  15.1434

          k =-0.5000 0.4950 0.5050 (  3722 PWs)   bands (ev):

    -5.6394  -5.6394  -3.5233  -3.5233   3.9867   3.9867   4.6234   4.6234
     5.2121   5.2121   5.4675   5.4675   6.5241   6.5241   7.0718   7.0718
    13.9512  13.9512  14.5571  14.5571  15.0498  15.0498  15.1447  15.1447

          k =-0.5025 0.4975 0.5025 (  3715 PWs)   bands (ev):

    -5.6395  -5.6395  -3.5234  -3.5234   3.9875   3.9875   4.6257   4.6257
     5.2131   5.2131   5.4654   5.4654   6.5229   6.5229   7.0706   7.0706
    13.9526  13.9526  14.5573  14.5573  15.0495  15.0495  15.1454  15.1454

          k =-0.5050 0.5000 0.5000 (  3716 PWs)   bands (ev):

    -5.6395  -5.6395  -3.5232  -3.5232   3.9874   3.9874   4.6257   4.6257
     5.2131   5.2131   5.4654   5.4654   6.5230   6.5230   7.0707   7.0707
    13.9519  13.9519  14.5577  14.5577  15.0491  15.0491  15.1454  15.1454

          k =-0.5075 0.5025 0.4975 (  3720 PWs)   bands (ev):

    -5.6396  -5.6396  -3.5230  -3.5230   3.9866   3.9866   4.6234   4.6234
     5.2121   5.2121   5.4675   5.4675   6.5243   6.5243   7.0720   7.0720
    13.9492  13.9492  14.5582  14.5582  15.0485  15.0485  15.1446  15.1446

          k =-0.4950 0.4950 0.5100 (  3723 PWs)   bands (ev):

    -5.6392  -5.6392  -3.5230  -3.5230   3.9843   3.9843   4.6168   4.6168
     5.2089   5.2089   5.4737   5.4737   6.5279   6.5279   7.0755   7.0755
    13.9465  13.9465  14.5567  14.5567  15.0502  15.0502  15.1427  15.1427

          k =-0.4975 0.4975 0.5075 (  3723 PWs)   bands (ev):

    -5.6394  -5.6394  -3.5232  -3.5232   3.9863   3.9863   4.6223   4.6223
     5.2116   5.2116   5.4685   5.4685   6.5248   6.5248   7.0724   7.0724
    13.9502  13.9502  14.5572  14.5572  15.0497  15.0497  15.1444  15.1444

          k =-0.5000 0.5000 0.5050 (  3716 PWs)   bands (ev):

    -5.6395  -5.6395  -3.5232  -3.5232   3.9874   3.9874   4.6257   4.6257
     5.2131   5.2131   5.4654   5.4654   6.5230   6.5230   7.0707   7.0707
    13.9519  13.9519  14.5577  14.5577  15.0491  15.0491  15.1454  15.1454

          k =-0.5025 0.5025 0.5025 (  3708 PWs)   bands (ev):

    -5.6397  -5.6397  -3.5231  -3.5231   3.9877   3.9877   4.6268   4.6268
     5.2137   5.2137   5.4643   5.4643   6.5225   6.5225   7.0701   7.0701
    13.9516  13.9516  14.5584  14.5584  15.0483  15.0483  15.1457  15.1457

          k =-0.5050 0.5050 0.5000 (  3717 PWs)   bands (ev):

    -5.6398  -5.6398  -3.5228  -3.5228   3.9873   3.9873   4.6256   4.6256
     5.2132   5.2132   5.4654   5.4654   6.5232   6.5232   7.0709   7.0709
    13.9492  13.9492  14.5592  14.5592  15.0474  15.0474  15.1452  15.1452

          k =-0.4925 0.4975 0.5125 (  3726 PWs)   bands (ev):

    -5.6391  -5.6391  -3.5228  -3.5228   3.9828   3.9828   4.6124   4.6124
     5.2069   5.2069   5.4778   5.4778   6.5304   6.5304   7.0779   7.0779
    13.9432  13.9432  14.5565  14.5565  15.0502  15.0502  15.1416  15.1416

          k =-0.4950 0.5000 0.5100 (  3725 PWs)   bands (ev):

    -5.6394  -5.6394  -3.5230  -3.5230   3.9851   3.9851   4.6190   4.6190
     5.2100   5.2100   5.4716   5.4716   6.5267   6.5267   7.0743   7.0743
    13.9472  13.9472  14.5573  14.5573  15.0495  15.0495  15.1434  15.1434

          k =-0.4975 0.5025 0.5075 (  3720 PWs)   bands (ev):

    -5.6396  -5.6396  -3.5230  -3.5230   3.9866   3.9866   4.6234   4.6234
     5.2121   5.2121   5.4675   5.4675   6.5243   6.5243   7.0720   7.0720
    13.9492  13.9492  14.5582  14.5582  15.0485  15.0485  15.1446  15.1446

          k =-0.5000 0.5050 0.5050 (  3717 PWs)   bands (ev):

    -5.6398  -5.6398  -3.5228  -3.5228   3.9873   3.9873   4.6256   4.6256
     5.2132   5.2132   5.4654   5.4654   6.5232   6.5232   7.0709   7.0709
    13.9492  13.9492  14.5592  14.5592  15.0474  15.0474  15.1452  15.1452

          k =-0.5025 0.5075 0.5025 (  3722 PWs)   bands (ev):

    -5.6401  -5.6401  -3.5225  -3.5225   3.9872   3.9872   4.6256   4.6256
     5.2133   5.2133   5.4654   5.4654   6.5234   6.5234   7.0710   7.0710
    13.9472  13.9472  14.5603  14.5603  15.0461  15.0461  15.1451  15.1451

          k =-0.5050 0.4850 0.5050 (  3723 PWs)   bands (ev):

    -5.6391  -5.6391  -3.5225  -3.5225   3.9815   3.9815   4.6091   4.6091
     5.2055   5.2055   5.4807   5.4807   6.5323   6.5323   7.0798   7.0798
    13.9402  13.9402  14.5565  14.5565  15.0497  15.0497  15.1409  15.1409

          k =-0.5075 0.4875 0.5025 (  3726 PWs)   bands (ev):

    -5.6391  -5.6391  -3.5228  -3.5228   3.9828   3.9828   4.6124   4.6124
     5.2069   5.2069   5.4778   5.4778   6.5304   6.5304   7.0779   7.0779
    13.9432  13.9432  14.5565  14.5565  15.0502  15.0502  15.1416  15.1416

          k =-0.5100 0.4900 0.5000 (  3728 PWs)   bands (ev):

    -5.6391  -5.6391  -3.5229  -3.5229   3.9832   3.9832   4.6135   4.6135
     5.2074   5.2074   5.4768   5.4768   6.5298   6.5298   7.0773   7.0773
    13.9442  13.9442  14.5565  14.5565  15.0504  15.0504  15.1418  15.1418

          k =-0.5125 0.4925 0.4975 (  3726 PWs)   bands (ev):

    -5.6391  -5.6391  -3.5228  -3.5228   3.9828   3.9828   4.6124   4.6124
     5.2069   5.2069   5.4778   5.4778   6.5304   6.5304   7.0779   7.0779
    13.9432  13.9432  14.5565  14.5565  15.0502  15.0502  15.1416  15.1416

          k =-0.5150 0.4950 0.4950 (  3723 PWs)   bands (ev):

    -5.6391  -5.6391  -3.5225  -3.5225   3.9815   3.9815   4.6091   4.6091
     5.2055   5.2055   5.4807   5.4807   6.5323   6.5323   7.0798   7.0798
    13.9402  13.9402  14.5565  14.5565  15.0497  15.0497  15.1409  15.1409

          k =-0.5025 0.4875 0.5075 (  3726 PWs)   bands (ev):

    -5.6391  -5.6391  -3.5228  -3.5228   3.9828   3.9828   4.6124   4.6124
     5.2069   5.2069   5.4778   5.4778   6.5304   6.5304   7.0779   7.0779
    13.9432  13.9432  14.5565  14.5565  15.0502  15.0502  15.1416  15.1416

          k =-0.5050 0.4900 0.5050 (  3723 PWs)   bands (ev):

    -5.6392  -5.6392  -3.5230  -3.5230   3.9843   3.9843   4.6168   4.6168
     5.2089   5.2089   5.4737   5.4737   6.5279   6.5279   7.0755   7.0755
    13.9465  13.9465  14.5567  14.5567  15.0502  15.0502  15.1427  15.1427

          k =-0.5075 0.4925 0.5025 (  3725 PWs)   bands (ev):

    -5.6393  -5.6393  -3.5231  -3.5231   3.9851   3.9851   4.6190   4.6190
     5.2100   5.2100   5.4716   5.4716   6.5267   6.5267   7.0743   7.0743
    13.9479  13.9479  14.5570  14.5570  15.0500  15.0500  15.1434  15.1434

          k =-0.5100 0.4950 0.5000 (  3725 PWs)   bands (ev):

    -5.6394  -5.6394  -3.5230  -3.5230   3.9851   3.9851   4.6190   4.6190
     5.2100   5.2100   5.4716   5.4716   6.5267   6.5267   7.0743   7.0743
    13.9472  13.9472  14.5573  14.5573  15.0495  15.0495  15.1434  15.1434

          k =-0.5125 0.4975 0.4975 (  3725 PWs)   bands (ev):

    -5.6394  -5.6394  -3.5227  -3.5227   3.9842   3.9842   4.6167   4.6167
     5.2091   5.2091   5.4737   5.4737   6.5281   6.5281   7.0756   7.0756
    13.9445  13.9445  14.5578  14.5578  15.0487  15.0487  15.1429  15.1429

          k =-0.5000 0.4900 0.5100 (  3728 PWs)   bands (ev):

    -5.6391  -5.6391  -3.5229  -3.5229   3.9832   3.9832   4.6135   4.6135
     5.2074   5.2074   5.4768   5.4768   6.5298   6.5298   7.0773   7.0773
    13.9442  13.9442  14.5565  14.5565  15.0504  15.0504  15.1418  15.1418

          k =-0.5025 0.4925 0.5075 (  3725 PWs)   bands (ev):

    -5.6393  -5.6393  -3.5231  -3.5231   3.9851   3.9851   4.6190   4.6190
     5.2100   5.2100   5.4716   5.4716   6.5267   6.5267   7.0743   7.0743
    13.9479  13.9479  14.5570  14.5570  15.0500  15.0500  15.1434  15.1434

          k =-0.5050 0.4950 0.5050 (  3721 PWs)   bands (ev):

    -5.6395  -5.6395  -3.5231  -3.5231   3.9862   3.9862   4.6223   4.6223
     5.2116   5.2116   5.4685   5.4685   6.5249   6.5249   7.0725   7.0725
    13.9495  13.9495  14.5576  14.5576  15.0493  15.0493  15.1443  15.1443

          k =-0.5075 0.4975 0.5025 (  3720 PWs)   bands (ev):

    -5.6396  -5.6396  -3.5230  -3.5230   3.9866   3.9866   4.6234   4.6234
     5.2121   5.2121   5.4675   5.4675   6.5243   6.5243   7.0720   7.0720
    13.9492  13.9492  14.5582  14.5582  15.0485  15.0485  15.1446  15.1446

          k =-0.5100 0.5000 0.5000 (  3720 PWs)   bands (ev):

    -5.6398  -5.6398  -3.5227  -3.5227   3.9861   3.9861   4.6222   4.6222
     5.2117   5.2117   5.4685   5.4685   6.5251   6.5251   7.0727   7.0727
    13.9469  13.9469  14.5590  14.5590  15.0475  15.0475  15.1443  15.1443

          k =-0.4975 0.4925 0.5125 (  3726 PWs)   bands (ev):

    -5.6391  -5.6391  -3.5228  -3.5228   3.9828   3.9828   4.6124   4.6124
     5.2069   5.2069   5.4778   5.4778   6.5304   6.5304   7.0779   7.0779
    13.9432  13.9432  14.5565  14.5565  15.0502  15.0502  15.1416  15.1416

          k =-0.5000 0.4950 0.5100 (  3725 PWs)   bands (ev):

    -5.6394  -5.6394  -3.5230  -3.5230   3.9851   3.9851   4.6190   4.6190
     5.2100   5.2100   5.4716   5.4716   6.5267   6.5267   7.0743   7.0743
    13.9472  13.9472  14.5573  14.5573  15.0495  15.0495  15.1434  15.1434

          k =-0.5025 0.4975 0.5075 (  3720 PWs)   bands (ev):

    -5.6396  -5.6396  -3.5230  -3.5230   3.9866   3.9866   4.6234   4.6234
     5.2121   5.2121   5.4675   5.4675   6.5243   6.5243   7.0720   7.0720
    13.9492  13.9492  14.5582  14.5582  15.0485  15.0485  15.1446  15.1446

          k =-0.5050 0.5000 0.5050 (  3717 PWs)   bands (ev):

    -5.6398  -5.6398  -3.5228  -3.5228   3.9873   3.9873   4.6256   4.6256
     5.2132   5.2132   5.4654   5.4654   6.5232   6.5232   7.0709   7.0709
    13.9492  13.9492  14.5592  14.5592  15.0474  15.0474  15.1452  15.1452

          k =-0.5075 0.5025 0.5025 (  3722 PWs)   bands (ev):

    -5.6401  -5.6401  -3.5225  -3.5225   3.9872   3.9872   4.6256   4.6256
     5.2133   5.2133   5.4654   5.4654   6.5234   6.5234   7.0710   7.0710
    13.9472  13.9472  14.5603  14.5603  15.0461  15.0461  15.1451  15.1451

          k =-0.4950 0.4950 0.5150 (  3723 PWs)   bands (ev):

    -5.6391  -5.6391  -3.5225  -3.5225   3.9815   3.9815   4.6091   4.6091
     5.2055   5.2055   5.4807   5.4807   6.5323   6.5323   7.0798   7.0798
    13.9402  13.9402  14.5565  14.5565  15.0497  15.0497  15.1409  15.1409

          k =-0.4975 0.4975 0.5125 (  3725 PWs)   bands (ev):

    -5.6394  -5.6394  -3.5227  -3.5227   3.9842   3.9842   4.6167   4.6167
     5.2091   5.2091   5.4737   5.4737   6.5281   6.5281   7.0756   7.0756
    13.9445  13.9445  14.5578  14.5578  15.0487  15.0487  15.1429  15.1429

          k =-0.5000 0.5000 0.5100 (  3720 PWs)   bands (ev):

    -5.6398  -5.6398  -3.5227  -3.5227   3.9861   3.9861   4.6222   4.6222
     5.2117   5.2117   5.4685   5.4685   6.5251   6.5251   7.0727   7.0727
    13.9469  13.9469  14.5590  14.5590  15.0475  15.0475  15.1443  15.1443

          k =-0.5025 0.5025 0.5075 (  3722 PWs)   bands (ev):

    -5.6401  -5.6401  -3.5225  -3.5225   3.9872   3.9872   4.6256   4.6256
     5.2133   5.2133   5.4654   5.4654   6.5234   6.5234   7.0710   7.0710
    13.9472  13.9472  14.5603  14.5603  15.0461  15.0461  15.1451  15.1451

          k =-0.5050 0.5050 0.5050 (  3729 PWs)   bands (ev):

    -5.6404  -5.6404  -3.5222  -3.5222   3.9874   3.9874   4.6266   4.6266
     5.2140   5.2140   5.4643   5.4643   6.5231   6.5231   7.0706   7.0706
    13.9455  13.9455  14.5617  14.5617  15.0445  15.0445  15.1453  15.1453

     Writing output data file PbTe_rel.save
 
     init_run     :      0.13s CPU      0.13s WALL (       1 calls)
     electrons    :     29.20s CPU     31.18s WALL (       1 calls)

     Called by init_run:
     wfcinit      :      0.00s CPU      0.00s WALL (       1 calls)
     potinit      :      0.01s CPU      0.01s WALL (       1 calls)

     Called by electrons:
     c_bands      :     29.19s CPU     31.18s WALL (       1 calls)
     v_of_rho     :      0.00s CPU      0.00s WALL (       1 calls)
     v_h          :      0.00s CPU      0.00s WALL (       1 calls)
     v_xc         :      0.00s CPU      0.00s WALL (       1 calls)

     Called by c_bands:
     init_us_2    :      0.01s CPU      0.01s WALL (      32 calls)
     cegterg      :     27.71s CPU     29.30s WALL (      64 calls)

     Called by sum_band:

     Called by *egterg:
     h_psi        :     23.23s CPU     24.62s WALL (    1105 calls)
     g_psi        :      0.22s CPU      0.23s WALL (    1009 calls)
     cdiaghg      :      1.55s CPU      1.70s WALL (    1041 calls)
     cegterg:over :      1.52s CPU      1.53s WALL (    1009 calls)
     cegterg:upda :      1.27s CPU      1.28s WALL (    1009 calls)
     cegterg:last :      0.70s CPU      0.70s WALL (     224 calls)

     Called by h_psi:
     h_psi:vloc   :     22.32s CPU     23.70s WALL (    1105 calls)
     h_psi:vnl    :      0.84s CPU      0.85s WALL (    1105 calls)
     add_vuspsi   :      0.37s CPU      0.38s WALL (    1105 calls)

     General routines
     calbec       :      0.47s CPU      0.46s WALL (    1105 calls)
     fft          :      0.00s CPU      0.00s WALL (       7 calls)
     fftw         :     20.78s CPU     22.15s WALL (   62372 calls)
     davcio       :      0.01s CPU      0.40s WALL (      64 calls)
 
     Parallel routines
     fft_scatter  :      2.95s CPU      3.68s WALL (   62379 calls)
 
     PWSCF        :    32.36s CPU        42.77s WALL

 
   This run was terminated on:  17: 4:25  11Oct2016            

=------------------------------------------------------------------------------=
   JOB DONE.
=------------------------------------------------------------------------------=
