
     Program PWSCF v.5.4.0 starts on  4Oct2016 at 21:17: 6 

     This program is part of the open-source Quantum ESPRESSO suite
     for quantum simulation of materials; please cite
         "P. Giannozzi et al., J. Phys.:Condens. Matter 21 395502 (2009);
          URL http://www.quantum-espresso.org", 
     in publications or presentations arising from this work. More details at
     http://www.quantum-espresso.org/quote

     Parallel version (MPI), running on    20 processors
     K-points division:     npool     =       4
     R & G space division:  proc/nbgrp/npool/nimage =       5
     Waiting for input...
     Reading input from standard input

     Current dimensions of program PWSCF are:
     Max number of different atomic species (ntypx) = 10
     Max number of k-points (npk) =  40000
     Max angular momentum in pseudopotentials (lmaxx) =  3

     Atomic positions and unit cell read from directory:
     /scratch/qichen/PbTe/large/PbTe_rel.save/
 

     Subspace diagonalization in iterative solution of the eigenvalue problem:
     a serial algorithm will be used

 
     Parallelization info
     --------------------
     sticks:   dense  smooth     PW     G-vecs:    dense   smooth      PW
     Min         252     252     72                 5924     5924     895
     Max         253     253     73                 5928     5928     896
     Sum        1261    1261    361                29627    29627    4477
 


     bravais-lattice index     =            2
     lattice parameter (alat)  =      11.8873  a.u.
     unit-cell volume          =     419.9424 (a.u.)^3
     number of atoms/cell      =            2
     number of atomic types    =            2
     number of electrons       =        10.00
     number of Kohn-Sham states=           24
     kinetic-energy cutoff     =      65.0000  Ry
     charge density cutoff     =     260.0000  Ry
     Exchange-correlation      = LDA ( 1  1  0  0 0 0)
     Non magnetic calculation with spin-orbit


     celldm(1)=  11.887300  celldm(2)=   0.000000  celldm(3)=   0.000000
     celldm(4)=   0.000000  celldm(5)=   0.000000  celldm(6)=   0.000000

     crystal axes: (cart. coord. in units of alat)
               a(1) = (  -0.500000   0.000000   0.500000 )  
               a(2) = (   0.000000   0.500000   0.500000 )  
               a(3) = (  -0.500000   0.500000   0.000000 )  

     reciprocal axes: (cart. coord. in units 2 pi/alat)
               b(1) = ( -1.000000 -1.000000  1.000000 )  
               b(2) = (  1.000000  1.000000  1.000000 )  
               b(3) = ( -1.000000  1.000000 -1.000000 )  


     PseudoPot. # 1 for Pb read from file:
     /scratch/qichen/PSlibrary/element/Pb/Pb.rel-pz-n-nc.UPF
     MD5 check sum: 92cea90c9cd3880773f6a1560a0a4433
     Pseudo is Norm-conserving + core correction, Zval =  4.0
     Generated using "atomic" code by A. Dal Corso  v.5.4.0
     Using radial grid of 1281 points,  4 beta functions with: 
                l(1) =   1
                l(2) =   1
                l(3) =   2
                l(4) =   2

     PseudoPot. # 2 for Te read from file:
     /scratch/qichen/PSlibrary/element/Pb/Te.rel-pz-n-nc.UPF
     MD5 check sum: 21394172f097b77d90c19c80635cc207
     Pseudo is Norm-conserving + core correction, Zval =  6.0
     Generated using "atomic" code by A. Dal Corso  v.5.4.0
     Using radial grid of 1245 points,  4 beta functions with: 
                l(1) =   1
                l(2) =   1
                l(3) =   2
                l(4) =   2

     atomic species   valence    mass     pseudopotential
        Pb             4.00   207.20000     Pb( 1.00)
        Te             6.00   127.60000     Te( 1.00)

     48 Sym. Ops., with inversion, found


                                    s                        frac. trans.

      isym =  1     identity                                     

 cryst.   s( 1) = (     1          0          0      )
                  (     0          1          0      )
                  (     0          0          1      )

 cart.    s( 1) = (  1.0000000  0.0000000  0.0000000 )
                  (  0.0000000  1.0000000  0.0000000 )
                  (  0.0000000  0.0000000  1.0000000 )


      isym =  2     180 deg rotation - cart. axis [0,0,1]        

 cryst.   s( 2) = (     0          1         -1      )
                  (     1          0         -1      )
                  (     0          0         -1      )

 cart.    s( 2) = ( -1.0000000  0.0000000  0.0000000 )
                  (  0.0000000 -1.0000000  0.0000000 )
                  (  0.0000000  0.0000000  1.0000000 )


      isym =  3     180 deg rotation - cart. axis [0,1,0]        

 cryst.   s( 3) = (    -1          0          0      )
                  (    -1          0          1      )
                  (    -1          1          0      )

 cart.    s( 3) = ( -1.0000000  0.0000000  0.0000000 )
                  (  0.0000000  1.0000000  0.0000000 )
                  (  0.0000000  0.0000000 -1.0000000 )


      isym =  4     180 deg rotation - cart. axis [1,0,0]        

 cryst.   s( 4) = (     0         -1          1      )
                  (     0         -1          0      )
                  (     1         -1          0      )

 cart.    s( 4) = (  1.0000000  0.0000000  0.0000000 )
                  (  0.0000000 -1.0000000  0.0000000 )
                  (  0.0000000  0.0000000 -1.0000000 )


      isym =  5     180 deg rotation - cart. axis [1,1,0]        

 cryst.   s( 5) = (     0         -1          0      )
                  (    -1          0          0      )
                  (     0          0         -1      )

 cart.    s( 5) = (  0.0000000  1.0000000  0.0000000 )
                  (  1.0000000  0.0000000  0.0000000 )
                  (  0.0000000  0.0000000 -1.0000000 )


      isym =  6     180 deg rotation - cart. axis [1,-1,0]       

 cryst.   s( 6) = (    -1          0          1      )
                  (     0         -1          1      )
                  (     0          0          1      )

 cart.    s( 6) = (  0.0000000 -1.0000000  0.0000000 )
                  ( -1.0000000  0.0000000  0.0000000 )
                  (  0.0000000  0.0000000 -1.0000000 )


      isym =  7      90 deg rotation - cart. axis [0,0,-1]       

 cryst.   s( 7) = (     0          1          0      )
                  (     0          1         -1      )
                  (    -1          1          0      )

 cart.    s( 7) = (  0.0000000  1.0000000  0.0000000 )
                  ( -1.0000000  0.0000000  0.0000000 )
                  (  0.0000000  0.0000000  1.0000000 )


      isym =  8      90 deg rotation - cart. axis [0,0,1]        

 cryst.   s( 8) = (     1          0         -1      )
                  (     1          0          0      )
                  (     1         -1          0      )

 cart.    s( 8) = (  0.0000000 -1.0000000  0.0000000 )
                  (  1.0000000  0.0000000  0.0000000 )
                  (  0.0000000  0.0000000  1.0000000 )


      isym =  9     180 deg rotation - cart. axis [1,0,1]        

 cryst.   s( 9) = (    -1          0          0      )
                  (     0          0         -1      )
                  (     0         -1          0      )

 cart.    s( 9) = (  0.0000000  0.0000000  1.0000000 )
                  (  0.0000000 -1.0000000  0.0000000 )
                  (  1.0000000  0.0000000  0.0000000 )


      isym = 10     180 deg rotation - cart. axis [-1,0,1]       

 cryst.   s(10) = (     1          0          0      )
                  (     1         -1          0      )
                  (     1          0         -1      )

 cart.    s(10) = (  0.0000000  0.0000000 -1.0000000 )
                  (  0.0000000 -1.0000000  0.0000000 )
                  ( -1.0000000  0.0000000  0.0000000 )


      isym = 11      90 deg rotation - cart. axis [0,1,0]        

 cryst.   s(11) = (     0          1         -1      )
                  (    -1          1          0      )
                  (     0          1          0      )

 cart.    s(11) = (  0.0000000  0.0000000  1.0000000 )
                  (  0.0000000  1.0000000  0.0000000 )
                  ( -1.0000000  0.0000000  0.0000000 )


      isym = 12      90 deg rotation - cart. axis [0,-1,0]       

 cryst.   s(12) = (     0         -1          1      )
                  (     0          0          1      )
                  (    -1          0          1      )

 cart.    s(12) = (  0.0000000  0.0000000 -1.0000000 )
                  (  0.0000000  1.0000000  0.0000000 )
                  (  1.0000000  0.0000000  0.0000000 )


      isym = 13     180 deg rotation - cart. axis [0,1,1]        

 cryst.   s(13) = (    -1          1          0      )
                  (     0          1          0      )
                  (     0          1         -1      )

 cart.    s(13) = ( -1.0000000  0.0000000  0.0000000 )
                  (  0.0000000  0.0000000  1.0000000 )
                  (  0.0000000  1.0000000  0.0000000 )


      isym = 14     180 deg rotation - cart. axis [0,1,-1]       

 cryst.   s(14) = (     0          0         -1      )
                  (     0         -1          0      )
                  (    -1          0          0      )

 cart.    s(14) = ( -1.0000000  0.0000000  0.0000000 )
                  (  0.0000000  0.0000000 -1.0000000 )
                  (  0.0000000 -1.0000000  0.0000000 )


      isym = 15      90 deg rotation - cart. axis [-1,0,0]       

 cryst.   s(15) = (     0          0          1      )
                  (    -1          0          1      )
                  (     0         -1          1      )

 cart.    s(15) = (  1.0000000  0.0000000  0.0000000 )
                  (  0.0000000  0.0000000  1.0000000 )
                  (  0.0000000 -1.0000000  0.0000000 )


      isym = 16      90 deg rotation - cart. axis [1,0,0]        

 cryst.   s(16) = (     1         -1          0      )
                  (     1          0         -1      )
                  (     1          0          0      )

 cart.    s(16) = (  1.0000000  0.0000000  0.0000000 )
                  (  0.0000000  0.0000000 -1.0000000 )
                  (  0.0000000  1.0000000  0.0000000 )


      isym = 17     120 deg rotation - cart. axis [-1,-1,-1]     

 cryst.   s(17) = (    -1          0          1      )
                  (    -1          1          0      )
                  (    -1          0          0      )

 cart.    s(17) = (  0.0000000  1.0000000  0.0000000 )
                  (  0.0000000  0.0000000  1.0000000 )
                  (  1.0000000  0.0000000  0.0000000 )


      isym = 18     120 deg rotation - cart. axis [-1,1,1]       

 cryst.   s(18) = (     0          1          0      )
                  (     0          0          1      )
                  (     1          0          0      )

 cart.    s(18) = (  0.0000000 -1.0000000  0.0000000 )
                  (  0.0000000  0.0000000  1.0000000 )
                  ( -1.0000000  0.0000000  0.0000000 )


      isym = 19     120 deg rotation - cart. axis [1,1,-1]       

 cryst.   s(19) = (     1          0         -1      )
                  (     0          0         -1      )
                  (     0          1         -1      )

 cart.    s(19) = (  0.0000000  1.0000000  0.0000000 )
                  (  0.0000000  0.0000000 -1.0000000 )
                  ( -1.0000000  0.0000000  0.0000000 )


      isym = 20     120 deg rotation - cart. axis [1,-1,1]       

 cryst.   s(20) = (     0         -1          0      )
                  (     1         -1          0      )
                  (     0         -1          1      )

 cart.    s(20) = (  0.0000000 -1.0000000  0.0000000 )
                  (  0.0000000  0.0000000 -1.0000000 )
                  (  1.0000000  0.0000000  0.0000000 )


      isym = 21     120 deg rotation - cart. axis [1,1,1]        

 cryst.   s(21) = (     0          0         -1      )
                  (     0          1         -1      )
                  (     1          0         -1      )

 cart.    s(21) = (  0.0000000  0.0000000  1.0000000 )
                  (  1.0000000  0.0000000  0.0000000 )
                  (  0.0000000  1.0000000  0.0000000 )


      isym = 22     120 deg rotation - cart. axis [-1,1,-1]      

 cryst.   s(22) = (    -1          1          0      )
                  (    -1          0          0      )
                  (    -1          0          1      )

 cart.    s(22) = (  0.0000000  0.0000000  1.0000000 )
                  ( -1.0000000  0.0000000  0.0000000 )
                  (  0.0000000 -1.0000000  0.0000000 )


      isym = 23     120 deg rotation - cart. axis [1,-1,-1]      

 cryst.   s(23) = (     0          0          1      )
                  (     1          0          0      )
                  (     0          1          0      )

 cart.    s(23) = (  0.0000000  0.0000000 -1.0000000 )
                  ( -1.0000000  0.0000000  0.0000000 )
                  (  0.0000000  1.0000000  0.0000000 )


      isym = 24     120 deg rotation - cart. axis [-1,-1,1]      

 cryst.   s(24) = (     1         -1          0      )
                  (     0         -1          1      )
                  (     0         -1          0      )

 cart.    s(24) = (  0.0000000  0.0000000 -1.0000000 )
                  (  1.0000000  0.0000000  0.0000000 )
                  (  0.0000000 -1.0000000  0.0000000 )


      isym = 25     inversion                                    

 cryst.   s(25) = (    -1          0          0      )
                  (     0         -1          0      )
                  (     0          0         -1      )

 cart.    s(25) = ( -1.0000000  0.0000000  0.0000000 )
                  (  0.0000000 -1.0000000  0.0000000 )
                  (  0.0000000  0.0000000 -1.0000000 )


      isym = 26     inv. 180 deg rotation - cart. axis [0,0,1]   

 cryst.   s(26) = (     0         -1          1      )
                  (    -1          0          1      )
                  (     0          0          1      )

 cart.    s(26) = (  1.0000000  0.0000000  0.0000000 )
                  (  0.0000000  1.0000000  0.0000000 )
                  (  0.0000000  0.0000000 -1.0000000 )


      isym = 27     inv. 180 deg rotation - cart. axis [0,1,0]   

 cryst.   s(27) = (     1          0          0      )
                  (     1          0         -1      )
                  (     1         -1          0      )

 cart.    s(27) = (  1.0000000  0.0000000  0.0000000 )
                  (  0.0000000 -1.0000000  0.0000000 )
                  (  0.0000000  0.0000000  1.0000000 )


      isym = 28     inv. 180 deg rotation - cart. axis [1,0,0]   

 cryst.   s(28) = (     0          1         -1      )
                  (     0          1          0      )
                  (    -1          1          0      )

 cart.    s(28) = ( -1.0000000  0.0000000  0.0000000 )
                  (  0.0000000  1.0000000  0.0000000 )
                  (  0.0000000  0.0000000  1.0000000 )


      isym = 29     inv. 180 deg rotation - cart. axis [1,1,0]   

 cryst.   s(29) = (     0          1          0      )
                  (     1          0          0      )
                  (     0          0          1      )

 cart.    s(29) = (  0.0000000 -1.0000000  0.0000000 )
                  ( -1.0000000  0.0000000  0.0000000 )
                  (  0.0000000  0.0000000  1.0000000 )


      isym = 30     inv. 180 deg rotation - cart. axis [1,-1,0]  

 cryst.   s(30) = (     1          0         -1      )
                  (     0          1         -1      )
                  (     0          0         -1      )

 cart.    s(30) = (  0.0000000  1.0000000  0.0000000 )
                  (  1.0000000  0.0000000  0.0000000 )
                  (  0.0000000  0.0000000  1.0000000 )


      isym = 31     inv.  90 deg rotation - cart. axis [0,0,-1]  

 cryst.   s(31) = (     0         -1          0      )
                  (     0         -1          1      )
                  (     1         -1          0      )

 cart.    s(31) = (  0.0000000 -1.0000000  0.0000000 )
                  (  1.0000000  0.0000000  0.0000000 )
                  (  0.0000000  0.0000000 -1.0000000 )


      isym = 32     inv.  90 deg rotation - cart. axis [0,0,1]   

 cryst.   s(32) = (    -1          0          1      )
                  (    -1          0          0      )
                  (    -1          1          0      )

 cart.    s(32) = (  0.0000000  1.0000000  0.0000000 )
                  ( -1.0000000  0.0000000  0.0000000 )
                  (  0.0000000  0.0000000 -1.0000000 )


      isym = 33     inv. 180 deg rotation - cart. axis [1,0,1]   

 cryst.   s(33) = (     1          0          0      )
                  (     0          0          1      )
                  (     0          1          0      )

 cart.    s(33) = (  0.0000000  0.0000000 -1.0000000 )
                  (  0.0000000  1.0000000  0.0000000 )
                  ( -1.0000000  0.0000000  0.0000000 )


      isym = 34     inv. 180 deg rotation - cart. axis [-1,0,1]  

 cryst.   s(34) = (    -1          0          0      )
                  (    -1          1          0      )
                  (    -1          0          1      )

 cart.    s(34) = (  0.0000000  0.0000000  1.0000000 )
                  (  0.0000000  1.0000000  0.0000000 )
                  (  1.0000000  0.0000000  0.0000000 )


      isym = 35     inv.  90 deg rotation - cart. axis [0,1,0]   

 cryst.   s(35) = (     0         -1          1      )
                  (     1         -1          0      )
                  (     0         -1          0      )

 cart.    s(35) = (  0.0000000  0.0000000 -1.0000000 )
                  (  0.0000000 -1.0000000  0.0000000 )
                  (  1.0000000  0.0000000  0.0000000 )


      isym = 36     inv.  90 deg rotation - cart. axis [0,-1,0]  

 cryst.   s(36) = (     0          1         -1      )
                  (     0          0         -1      )
                  (     1          0         -1      )

 cart.    s(36) = (  0.0000000  0.0000000  1.0000000 )
                  (  0.0000000 -1.0000000  0.0000000 )
                  ( -1.0000000  0.0000000  0.0000000 )


      isym = 37     inv. 180 deg rotation - cart. axis [0,1,1]   

 cryst.   s(37) = (     1         -1          0      )
                  (     0         -1          0      )
                  (     0         -1          1      )

 cart.    s(37) = (  1.0000000  0.0000000  0.0000000 )
                  (  0.0000000  0.0000000 -1.0000000 )
                  (  0.0000000 -1.0000000  0.0000000 )


      isym = 38     inv. 180 deg rotation - cart. axis [0,1,-1]  

 cryst.   s(38) = (     0          0          1      )
                  (     0          1          0      )
                  (     1          0          0      )

 cart.    s(38) = (  1.0000000  0.0000000  0.0000000 )
                  (  0.0000000  0.0000000  1.0000000 )
                  (  0.0000000  1.0000000  0.0000000 )


      isym = 39     inv.  90 deg rotation - cart. axis [-1,0,0]  

 cryst.   s(39) = (     0          0         -1      )
                  (     1          0         -1      )
                  (     0          1         -1      )

 cart.    s(39) = ( -1.0000000  0.0000000  0.0000000 )
                  (  0.0000000  0.0000000 -1.0000000 )
                  (  0.0000000  1.0000000  0.0000000 )


      isym = 40     inv.  90 deg rotation - cart. axis [1,0,0]   

 cryst.   s(40) = (    -1          1          0      )
                  (    -1          0          1      )
                  (    -1          0          0      )

 cart.    s(40) = ( -1.0000000  0.0000000  0.0000000 )
                  (  0.0000000  0.0000000  1.0000000 )
                  (  0.0000000 -1.0000000  0.0000000 )


      isym = 41     inv. 120 deg rotation - cart. axis [-1,-1,-1]

 cryst.   s(41) = (     1          0         -1      )
                  (     1         -1          0      )
                  (     1          0          0      )

 cart.    s(41) = (  0.0000000 -1.0000000  0.0000000 )
                  (  0.0000000  0.0000000 -1.0000000 )
                  ( -1.0000000  0.0000000  0.0000000 )


      isym = 42     inv. 120 deg rotation - cart. axis [-1,1,1]  

 cryst.   s(42) = (     0         -1          0      )
                  (     0          0         -1      )
                  (    -1          0          0      )

 cart.    s(42) = (  0.0000000  1.0000000  0.0000000 )
                  (  0.0000000  0.0000000 -1.0000000 )
                  (  1.0000000  0.0000000  0.0000000 )


      isym = 43     inv. 120 deg rotation - cart. axis [1,1,-1]  

 cryst.   s(43) = (    -1          0          1      )
                  (     0          0          1      )
                  (     0         -1          1      )

 cart.    s(43) = (  0.0000000 -1.0000000  0.0000000 )
                  (  0.0000000  0.0000000  1.0000000 )
                  (  1.0000000  0.0000000  0.0000000 )


      isym = 44     inv. 120 deg rotation - cart. axis [1,-1,1]  

 cryst.   s(44) = (     0          1          0      )
                  (    -1          1          0      )
                  (     0          1         -1      )

 cart.    s(44) = (  0.0000000  1.0000000  0.0000000 )
                  (  0.0000000  0.0000000  1.0000000 )
                  ( -1.0000000  0.0000000  0.0000000 )


      isym = 45     inv. 120 deg rotation - cart. axis [1,1,1]   

 cryst.   s(45) = (     0          0          1      )
                  (     0         -1          1      )
                  (    -1          0          1      )

 cart.    s(45) = (  0.0000000  0.0000000 -1.0000000 )
                  ( -1.0000000  0.0000000  0.0000000 )
                  (  0.0000000 -1.0000000  0.0000000 )


      isym = 46     inv. 120 deg rotation - cart. axis [-1,1,-1] 

 cryst.   s(46) = (     1         -1          0      )
                  (     1          0          0      )
                  (     1          0         -1      )

 cart.    s(46) = (  0.0000000  0.0000000 -1.0000000 )
                  (  1.0000000  0.0000000  0.0000000 )
                  (  0.0000000  1.0000000  0.0000000 )


      isym = 47     inv. 120 deg rotation - cart. axis [1,-1,-1] 

 cryst.   s(47) = (     0          0         -1      )
                  (    -1          0          0      )
                  (     0         -1          0      )

 cart.    s(47) = (  0.0000000  0.0000000  1.0000000 )
                  (  1.0000000  0.0000000  0.0000000 )
                  (  0.0000000 -1.0000000  0.0000000 )


      isym = 48     inv. 120 deg rotation - cart. axis [-1,-1,1] 

 cryst.   s(48) = (    -1          1          0      )
                  (     0          1         -1      )
                  (     0          1          0      )

 cart.    s(48) = (  0.0000000  0.0000000  1.0000000 )
                  ( -1.0000000  0.0000000  0.0000000 )
                  (  0.0000000  1.0000000  0.0000000 )


     double point group O_h (m-3m) 
     there are 16 classes and  6 irreducible representations
     the character table:

       E     -E    8C3   -8C3   3C2  6C4   -6C4   6C2' i     -i    8S6   -8S6 
                               -3C2              -6C2'                        
G_6+   2.00 -2.00  1.00 -1.00  0.00  1.41 -1.41  0.00  2.00 -2.00  1.00 -1.00
G_7+   2.00 -2.00  1.00 -1.00  0.00 -1.41  1.41  0.00  2.00 -2.00  1.00 -1.00
G_8+   4.00 -4.00 -1.00  1.00  0.00  0.00  0.00  0.00  4.00 -4.00 -1.00  1.00
G_6-   2.00 -2.00  1.00 -1.00  0.00  1.41 -1.41  0.00 -2.00  2.00 -1.00  1.00
G_7-   2.00 -2.00  1.00 -1.00  0.00 -1.41  1.41  0.00 -2.00  2.00 -1.00  1.00
G_8-   4.00 -4.00 -1.00  1.00  0.00  0.00  0.00  0.00 -4.00  4.00  1.00 -1.00

        3s_h 6S4   -6S4   6s_d
       -3s_h             -6s_d
G_6+   0.00  1.41 -1.41  0.00
G_7+   0.00 -1.41  1.41  0.00
G_8+   0.00  0.00  0.00  0.00
G_6-   0.00 -1.41  1.41  0.00
G_7-   0.00  1.41 -1.41  0.00
G_8-   0.00  0.00  0.00  0.00

     the symmetry operations in each class and the name of the first element:

     E             1
          identity                                               
     -E           -1
          identity E                                             
     8C3          17   19   20   18   24   21   22   23
          120 deg rotation - cart. axis [-1,-1,-1]               
     -8C3        -17  -19  -20  -18  -24  -21  -22  -23
          120 deg rotation - cart. axis [-1,-1,-1] E             
      3C2 -3C2     2   -2    4   -4    3   -3
          180 deg rotation - cart. axis [0,0,1]                  
     6C4           7    8   15   16   12   11
           90 deg rotation - cart. axis [0,0,-1]                 
     -6C4         -7   -8  -15  -16  -12  -11
           90 deg rotation - cart. axis [0,0,-1] E               
      6C2'-6C2'    5   -5    6   -6   14  -13  -14   13  -10   -9   10    9
          180 deg rotation - cart. axis [1,1,0]                  
     i            25
          inversion                                              
     -i          -25
          inversion E                                            
     8S6          41   43   44   42   48   45   46   47
          inv. 120 deg rotation - cart. axis [-1,-1,-1]          
     -8S6        -41  -43  -44  -42  -48  -45  -46  -47
          inv. 120 deg rotation - cart. axis [-1,-1,-1] E        
      3s_h-3s_h   26  -26   28  -28   27  -27
          inv. 180 deg rotation - cart. axis [0,0,1]             
     6S4          31   32   39   40   36   35
          inv.  90 deg rotation - cart. axis [0,0,-1]            
     -6S4        -31  -32  -39  -40  -36  -35
          inv.  90 deg rotation - cart. axis [0,0,-1] E          
      6s_d-6s_d   29  -29   30  -30   38  -37  -38   37  -34  -33   34   33
          inv. 180 deg rotation - cart. axis [1,1,0]             

   Cartesian axes

     site n.     atom                  positions (alat units)
         1           Pb  tau(   1) = (   0.0000000   0.0000000   0.0000000  )
         2           Te  tau(   2) = (  -0.5000000   0.5000000   0.5000000  )

   Crystallographic axes

     site n.     atom                  positions (cryst. coord.)
         1           Pb  tau(   1) = (  0.0000000  0.0000000  0.0000000  )
         2           Te  tau(   2) = (  0.5000000  0.5000000  0.5000000  )

     number of k points=   125
                       cart. coord. in units 2pi/alat
        k(    1) = (  -0.4750000   0.4750000   0.4750000), wk =   0.0080000
        k(    2) = (  -0.4875000   0.4875000   0.4625000), wk =   0.0080000
        k(    3) = (  -0.5000000   0.5000000   0.4500000), wk =   0.0080000
        k(    4) = (  -0.5125000   0.5125000   0.4375000), wk =   0.0080000
        k(    5) = (  -0.5250000   0.5250000   0.4250000), wk =   0.0080000
        k(    6) = (  -0.4625000   0.4875000   0.4875000), wk =   0.0080000
        k(    7) = (  -0.4750000   0.5000000   0.4750000), wk =   0.0080000
        k(    8) = (  -0.4875000   0.5125000   0.4625000), wk =   0.0080000
        k(    9) = (  -0.5000000   0.5250000   0.4500000), wk =   0.0080000
        k(   10) = (  -0.5125000   0.5375000   0.4375000), wk =   0.0080000
        k(   11) = (  -0.4500000   0.5000000   0.5000000), wk =   0.0080000
        k(   12) = (  -0.4625000   0.5125000   0.4875000), wk =   0.0080000
        k(   13) = (  -0.4750000   0.5250000   0.4750000), wk =   0.0080000
        k(   14) = (  -0.4875000   0.5375000   0.4625000), wk =   0.0080000
        k(   15) = (  -0.5000000   0.5500000   0.4500000), wk =   0.0080000
        k(   16) = (  -0.4375000   0.5125000   0.5125000), wk =   0.0080000
        k(   17) = (  -0.4500000   0.5250000   0.5000000), wk =   0.0080000
        k(   18) = (  -0.4625000   0.5375000   0.4875000), wk =   0.0080000
        k(   19) = (  -0.4750000   0.5500000   0.4750000), wk =   0.0080000
        k(   20) = (  -0.4875000   0.5625000   0.4625000), wk =   0.0080000
        k(   21) = (  -0.4250000   0.5250000   0.5250000), wk =   0.0080000
        k(   22) = (  -0.4375000   0.5375000   0.5125000), wk =   0.0080000
        k(   23) = (  -0.4500000   0.5500000   0.5000000), wk =   0.0080000
        k(   24) = (  -0.4625000   0.5625000   0.4875000), wk =   0.0080000
        k(   25) = (  -0.4750000   0.5750000   0.4750000), wk =   0.0080000
        k(   26) = (  -0.4875000   0.4625000   0.4875000), wk =   0.0080000
        k(   27) = (  -0.5000000   0.4750000   0.4750000), wk =   0.0080000
        k(   28) = (  -0.5125000   0.4875000   0.4625000), wk =   0.0080000
        k(   29) = (  -0.5250000   0.5000000   0.4500000), wk =   0.0080000
        k(   30) = (  -0.5375000   0.5125000   0.4375000), wk =   0.0080000
        k(   31) = (  -0.4750000   0.4750000   0.5000000), wk =   0.0080000
        k(   32) = (  -0.4875000   0.4875000   0.4875000), wk =   0.0080000
        k(   33) = (  -0.5000000   0.5000000   0.4750000), wk =   0.0080000
        k(   34) = (  -0.5125000   0.5125000   0.4625000), wk =   0.0080000
        k(   35) = (  -0.5250000   0.5250000   0.4500000), wk =   0.0080000
        k(   36) = (  -0.4625000   0.4875000   0.5125000), wk =   0.0080000
        k(   37) = (  -0.4750000   0.5000000   0.5000000), wk =   0.0080000
        k(   38) = (  -0.4875000   0.5125000   0.4875000), wk =   0.0080000
        k(   39) = (  -0.5000000   0.5250000   0.4750000), wk =   0.0080000
        k(   40) = (  -0.5125000   0.5375000   0.4625000), wk =   0.0080000
        k(   41) = (  -0.4500000   0.5000000   0.5250000), wk =   0.0080000
        k(   42) = (  -0.4625000   0.5125000   0.5125000), wk =   0.0080000
        k(   43) = (  -0.4750000   0.5250000   0.5000000), wk =   0.0080000
        k(   44) = (  -0.4875000   0.5375000   0.4875000), wk =   0.0080000
        k(   45) = (  -0.5000000   0.5500000   0.4750000), wk =   0.0080000
        k(   46) = (  -0.4375000   0.5125000   0.5375000), wk =   0.0080000
        k(   47) = (  -0.4500000   0.5250000   0.5250000), wk =   0.0080000
        k(   48) = (  -0.4625000   0.5375000   0.5125000), wk =   0.0080000
        k(   49) = (  -0.4750000   0.5500000   0.5000000), wk =   0.0080000
        k(   50) = (  -0.4875000   0.5625000   0.4875000), wk =   0.0080000
        k(   51) = (  -0.5000000   0.4500000   0.5000000), wk =   0.0080000
        k(   52) = (  -0.5125000   0.4625000   0.4875000), wk =   0.0080000
        k(   53) = (  -0.5250000   0.4750000   0.4750000), wk =   0.0080000
        k(   54) = (  -0.5375000   0.4875000   0.4625000), wk =   0.0080000
        k(   55) = (  -0.5500000   0.5000000   0.4500000), wk =   0.0080000
        k(   56) = (  -0.4875000   0.4625000   0.5125000), wk =   0.0080000
        k(   57) = (  -0.5000000   0.4750000   0.5000000), wk =   0.0080000
        k(   58) = (  -0.5125000   0.4875000   0.4875000), wk =   0.0080000
        k(   59) = (  -0.5250000   0.5000000   0.4750000), wk =   0.0080000
        k(   60) = (  -0.5375000   0.5125000   0.4625000), wk =   0.0080000
        k(   61) = (  -0.4750000   0.4750000   0.5250000), wk =   0.0080000
        k(   62) = (  -0.4875000   0.4875000   0.5125000), wk =   0.0080000
        k(   63) = (  -0.5000000   0.5000000   0.5000000), wk =   0.0080000
        k(   64) = (  -0.5125000   0.5125000   0.4875000), wk =   0.0080000
        k(   65) = (  -0.5250000   0.5250000   0.4750000), wk =   0.0080000
        k(   66) = (  -0.4625000   0.4875000   0.5375000), wk =   0.0080000
        k(   67) = (  -0.4750000   0.5000000   0.5250000), wk =   0.0080000
        k(   68) = (  -0.4875000   0.5125000   0.5125000), wk =   0.0080000
        k(   69) = (  -0.5000000   0.5250000   0.5000000), wk =   0.0080000
        k(   70) = (  -0.5125000   0.5375000   0.4875000), wk =   0.0080000
        k(   71) = (  -0.4500000   0.5000000   0.5500000), wk =   0.0080000
        k(   72) = (  -0.4625000   0.5125000   0.5375000), wk =   0.0080000
        k(   73) = (  -0.4750000   0.5250000   0.5250000), wk =   0.0080000
        k(   74) = (  -0.4875000   0.5375000   0.5125000), wk =   0.0080000
        k(   75) = (  -0.5000000   0.5500000   0.5000000), wk =   0.0080000
        k(   76) = (  -0.5125000   0.4375000   0.5125000), wk =   0.0080000
        k(   77) = (  -0.5250000   0.4500000   0.5000000), wk =   0.0080000
        k(   78) = (  -0.5375000   0.4625000   0.4875000), wk =   0.0080000
        k(   79) = (  -0.5500000   0.4750000   0.4750000), wk =   0.0080000
        k(   80) = (  -0.5625000   0.4875000   0.4625000), wk =   0.0080000
        k(   81) = (  -0.5000000   0.4500000   0.5250000), wk =   0.0080000
        k(   82) = (  -0.5125000   0.4625000   0.5125000), wk =   0.0080000
        k(   83) = (  -0.5250000   0.4750000   0.5000000), wk =   0.0080000
        k(   84) = (  -0.5375000   0.4875000   0.4875000), wk =   0.0080000
        k(   85) = (  -0.5500000   0.5000000   0.4750000), wk =   0.0080000
        k(   86) = (  -0.4875000   0.4625000   0.5375000), wk =   0.0080000
        k(   87) = (  -0.5000000   0.4750000   0.5250000), wk =   0.0080000
        k(   88) = (  -0.5125000   0.4875000   0.5125000), wk =   0.0080000
        k(   89) = (  -0.5250000   0.5000000   0.5000000), wk =   0.0080000
        k(   90) = (  -0.5375000   0.5125000   0.4875000), wk =   0.0080000
        k(   91) = (  -0.4750000   0.4750000   0.5500000), wk =   0.0080000
        k(   92) = (  -0.4875000   0.4875000   0.5375000), wk =   0.0080000
        k(   93) = (  -0.5000000   0.5000000   0.5250000), wk =   0.0080000
        k(   94) = (  -0.5125000   0.5125000   0.5125000), wk =   0.0080000
        k(   95) = (  -0.5250000   0.5250000   0.5000000), wk =   0.0080000
        k(   96) = (  -0.4625000   0.4875000   0.5625000), wk =   0.0080000
        k(   97) = (  -0.4750000   0.5000000   0.5500000), wk =   0.0080000
        k(   98) = (  -0.4875000   0.5125000   0.5375000), wk =   0.0080000
        k(   99) = (  -0.5000000   0.5250000   0.5250000), wk =   0.0080000
        k(  100) = (  -0.5125000   0.5375000   0.5125000), wk =   0.0080000
        k(  101) = (  -0.5250000   0.4250000   0.5250000), wk =   0.0080000
        k(  102) = (  -0.5375000   0.4375000   0.5125000), wk =   0.0080000
        k(  103) = (  -0.5500000   0.4500000   0.5000000), wk =   0.0080000
        k(  104) = (  -0.5625000   0.4625000   0.4875000), wk =   0.0080000
        k(  105) = (  -0.5750000   0.4750000   0.4750000), wk =   0.0080000
        k(  106) = (  -0.5125000   0.4375000   0.5375000), wk =   0.0080000
        k(  107) = (  -0.5250000   0.4500000   0.5250000), wk =   0.0080000
        k(  108) = (  -0.5375000   0.4625000   0.5125000), wk =   0.0080000
        k(  109) = (  -0.5500000   0.4750000   0.5000000), wk =   0.0080000
        k(  110) = (  -0.5625000   0.4875000   0.4875000), wk =   0.0080000
        k(  111) = (  -0.5000000   0.4500000   0.5500000), wk =   0.0080000
        k(  112) = (  -0.5125000   0.4625000   0.5375000), wk =   0.0080000
        k(  113) = (  -0.5250000   0.4750000   0.5250000), wk =   0.0080000
        k(  114) = (  -0.5375000   0.4875000   0.5125000), wk =   0.0080000
        k(  115) = (  -0.5500000   0.5000000   0.5000000), wk =   0.0080000
        k(  116) = (  -0.4875000   0.4625000   0.5625000), wk =   0.0080000
        k(  117) = (  -0.5000000   0.4750000   0.5500000), wk =   0.0080000
        k(  118) = (  -0.5125000   0.4875000   0.5375000), wk =   0.0080000
        k(  119) = (  -0.5250000   0.5000000   0.5250000), wk =   0.0080000
        k(  120) = (  -0.5375000   0.5125000   0.5125000), wk =   0.0080000
        k(  121) = (  -0.4750000   0.4750000   0.5750000), wk =   0.0080000
        k(  122) = (  -0.4875000   0.4875000   0.5625000), wk =   0.0080000
        k(  123) = (  -0.5000000   0.5000000   0.5500000), wk =   0.0080000
        k(  124) = (  -0.5125000   0.5125000   0.5375000), wk =   0.0080000
        k(  125) = (  -0.5250000   0.5250000   0.5250000), wk =   0.0080000

                       cryst. coord.
        k(    1) = (   0.4750000   0.4750000   0.4750000), wk =   0.0080000
        k(    2) = (   0.4750000   0.4750000   0.4875000), wk =   0.0080000
        k(    3) = (   0.4750000   0.4750000   0.5000000), wk =   0.0080000
        k(    4) = (   0.4750000   0.4750000   0.5125000), wk =   0.0080000
        k(    5) = (   0.4750000   0.4750000   0.5250000), wk =   0.0080000
        k(    6) = (   0.4750000   0.4875000   0.4750000), wk =   0.0080000
        k(    7) = (   0.4750000   0.4875000   0.4875000), wk =   0.0080000
        k(    8) = (   0.4750000   0.4875000   0.5000000), wk =   0.0080000
        k(    9) = (   0.4750000   0.4875000   0.5125000), wk =   0.0080000
        k(   10) = (   0.4750000   0.4875000   0.5250000), wk =   0.0080000
        k(   11) = (   0.4750000   0.5000000   0.4750000), wk =   0.0080000
        k(   12) = (   0.4750000   0.5000000   0.4875000), wk =   0.0080000
        k(   13) = (   0.4750000   0.5000000   0.5000000), wk =   0.0080000
        k(   14) = (   0.4750000   0.5000000   0.5125000), wk =   0.0080000
        k(   15) = (   0.4750000   0.5000000   0.5250000), wk =   0.0080000
        k(   16) = (   0.4750000   0.5125000   0.4750000), wk =   0.0080000
        k(   17) = (   0.4750000   0.5125000   0.4875000), wk =   0.0080000
        k(   18) = (   0.4750000   0.5125000   0.5000000), wk =   0.0080000
        k(   19) = (   0.4750000   0.5125000   0.5125000), wk =   0.0080000
        k(   20) = (   0.4750000   0.5125000   0.5250000), wk =   0.0080000
        k(   21) = (   0.4750000   0.5250000   0.4750000), wk =   0.0080000
        k(   22) = (   0.4750000   0.5250000   0.4875000), wk =   0.0080000
        k(   23) = (   0.4750000   0.5250000   0.5000000), wk =   0.0080000
        k(   24) = (   0.4750000   0.5250000   0.5125000), wk =   0.0080000
        k(   25) = (   0.4750000   0.5250000   0.5250000), wk =   0.0080000
        k(   26) = (   0.4875000   0.4750000   0.4750000), wk =   0.0080000
        k(   27) = (   0.4875000   0.4750000   0.4875000), wk =   0.0080000
        k(   28) = (   0.4875000   0.4750000   0.5000000), wk =   0.0080000
        k(   29) = (   0.4875000   0.4750000   0.5125000), wk =   0.0080000
        k(   30) = (   0.4875000   0.4750000   0.5250000), wk =   0.0080000
        k(   31) = (   0.4875000   0.4875000   0.4750000), wk =   0.0080000
        k(   32) = (   0.4875000   0.4875000   0.4875000), wk =   0.0080000
        k(   33) = (   0.4875000   0.4875000   0.5000000), wk =   0.0080000
        k(   34) = (   0.4875000   0.4875000   0.5125000), wk =   0.0080000
        k(   35) = (   0.4875000   0.4875000   0.5250000), wk =   0.0080000
        k(   36) = (   0.4875000   0.5000000   0.4750000), wk =   0.0080000
        k(   37) = (   0.4875000   0.5000000   0.4875000), wk =   0.0080000
        k(   38) = (   0.4875000   0.5000000   0.5000000), wk =   0.0080000
        k(   39) = (   0.4875000   0.5000000   0.5125000), wk =   0.0080000
        k(   40) = (   0.4875000   0.5000000   0.5250000), wk =   0.0080000
        k(   41) = (   0.4875000   0.5125000   0.4750000), wk =   0.0080000
        k(   42) = (   0.4875000   0.5125000   0.4875000), wk =   0.0080000
        k(   43) = (   0.4875000   0.5125000   0.5000000), wk =   0.0080000
        k(   44) = (   0.4875000   0.5125000   0.5125000), wk =   0.0080000
        k(   45) = (   0.4875000   0.5125000   0.5250000), wk =   0.0080000
        k(   46) = (   0.4875000   0.5250000   0.4750000), wk =   0.0080000
        k(   47) = (   0.4875000   0.5250000   0.4875000), wk =   0.0080000
        k(   48) = (   0.4875000   0.5250000   0.5000000), wk =   0.0080000
        k(   49) = (   0.4875000   0.5250000   0.5125000), wk =   0.0080000
        k(   50) = (   0.4875000   0.5250000   0.5250000), wk =   0.0080000
        k(   51) = (   0.5000000   0.4750000   0.4750000), wk =   0.0080000
        k(   52) = (   0.5000000   0.4750000   0.4875000), wk =   0.0080000
        k(   53) = (   0.5000000   0.4750000   0.5000000), wk =   0.0080000
        k(   54) = (   0.5000000   0.4750000   0.5125000), wk =   0.0080000
        k(   55) = (   0.5000000   0.4750000   0.5250000), wk =   0.0080000
        k(   56) = (   0.5000000   0.4875000   0.4750000), wk =   0.0080000
        k(   57) = (   0.5000000   0.4875000   0.4875000), wk =   0.0080000
        k(   58) = (   0.5000000   0.4875000   0.5000000), wk =   0.0080000
        k(   59) = (   0.5000000   0.4875000   0.5125000), wk =   0.0080000
        k(   60) = (   0.5000000   0.4875000   0.5250000), wk =   0.0080000
        k(   61) = (   0.5000000   0.5000000   0.4750000), wk =   0.0080000
        k(   62) = (   0.5000000   0.5000000   0.4875000), wk =   0.0080000
        k(   63) = (   0.5000000   0.5000000   0.5000000), wk =   0.0080000
        k(   64) = (   0.5000000   0.5000000   0.5125000), wk =   0.0080000
        k(   65) = (   0.5000000   0.5000000   0.5250000), wk =   0.0080000
        k(   66) = (   0.5000000   0.5125000   0.4750000), wk =   0.0080000
        k(   67) = (   0.5000000   0.5125000   0.4875000), wk =   0.0080000
        k(   68) = (   0.5000000   0.5125000   0.5000000), wk =   0.0080000
        k(   69) = (   0.5000000   0.5125000   0.5125000), wk =   0.0080000
        k(   70) = (   0.5000000   0.5125000   0.5250000), wk =   0.0080000
        k(   71) = (   0.5000000   0.5250000   0.4750000), wk =   0.0080000
        k(   72) = (   0.5000000   0.5250000   0.4875000), wk =   0.0080000
        k(   73) = (   0.5000000   0.5250000   0.5000000), wk =   0.0080000
        k(   74) = (   0.5000000   0.5250000   0.5125000), wk =   0.0080000
        k(   75) = (   0.5000000   0.5250000   0.5250000), wk =   0.0080000
        k(   76) = (   0.5125000   0.4750000   0.4750000), wk =   0.0080000
        k(   77) = (   0.5125000   0.4750000   0.4875000), wk =   0.0080000
        k(   78) = (   0.5125000   0.4750000   0.5000000), wk =   0.0080000
        k(   79) = (   0.5125000   0.4750000   0.5125000), wk =   0.0080000
        k(   80) = (   0.5125000   0.4750000   0.5250000), wk =   0.0080000
        k(   81) = (   0.5125000   0.4875000   0.4750000), wk =   0.0080000
        k(   82) = (   0.5125000   0.4875000   0.4875000), wk =   0.0080000
        k(   83) = (   0.5125000   0.4875000   0.5000000), wk =   0.0080000
        k(   84) = (   0.5125000   0.4875000   0.5125000), wk =   0.0080000
        k(   85) = (   0.5125000   0.4875000   0.5250000), wk =   0.0080000
        k(   86) = (   0.5125000   0.5000000   0.4750000), wk =   0.0080000
        k(   87) = (   0.5125000   0.5000000   0.4875000), wk =   0.0080000
        k(   88) = (   0.5125000   0.5000000   0.5000000), wk =   0.0080000
        k(   89) = (   0.5125000   0.5000000   0.5125000), wk =   0.0080000
        k(   90) = (   0.5125000   0.5000000   0.5250000), wk =   0.0080000
        k(   91) = (   0.5125000   0.5125000   0.4750000), wk =   0.0080000
        k(   92) = (   0.5125000   0.5125000   0.4875000), wk =   0.0080000
        k(   93) = (   0.5125000   0.5125000   0.5000000), wk =   0.0080000
        k(   94) = (   0.5125000   0.5125000   0.5125000), wk =   0.0080000
        k(   95) = (   0.5125000   0.5125000   0.5250000), wk =   0.0080000
        k(   96) = (   0.5125000   0.5250000   0.4750000), wk =   0.0080000
        k(   97) = (   0.5125000   0.5250000   0.4875000), wk =   0.0080000
        k(   98) = (   0.5125000   0.5250000   0.5000000), wk =   0.0080000
        k(   99) = (   0.5125000   0.5250000   0.5125000), wk =   0.0080000
        k(  100) = (   0.5125000   0.5250000   0.5250000), wk =   0.0080000
        k(  101) = (   0.5250000   0.4750000   0.4750000), wk =   0.0080000
        k(  102) = (   0.5250000   0.4750000   0.4875000), wk =   0.0080000
        k(  103) = (   0.5250000   0.4750000   0.5000000), wk =   0.0080000
        k(  104) = (   0.5250000   0.4750000   0.5125000), wk =   0.0080000
        k(  105) = (   0.5250000   0.4750000   0.5250000), wk =   0.0080000
        k(  106) = (   0.5250000   0.4875000   0.4750000), wk =   0.0080000
        k(  107) = (   0.5250000   0.4875000   0.4875000), wk =   0.0080000
        k(  108) = (   0.5250000   0.4875000   0.5000000), wk =   0.0080000
        k(  109) = (   0.5250000   0.4875000   0.5125000), wk =   0.0080000
        k(  110) = (   0.5250000   0.4875000   0.5250000), wk =   0.0080000
        k(  111) = (   0.5250000   0.5000000   0.4750000), wk =   0.0080000
        k(  112) = (   0.5250000   0.5000000   0.4875000), wk =   0.0080000
        k(  113) = (   0.5250000   0.5000000   0.5000000), wk =   0.0080000
        k(  114) = (   0.5250000   0.5000000   0.5125000), wk =   0.0080000
        k(  115) = (   0.5250000   0.5000000   0.5250000), wk =   0.0080000
        k(  116) = (   0.5250000   0.5125000   0.4750000), wk =   0.0080000
        k(  117) = (   0.5250000   0.5125000   0.4875000), wk =   0.0080000
        k(  118) = (   0.5250000   0.5125000   0.5000000), wk =   0.0080000
        k(  119) = (   0.5250000   0.5125000   0.5125000), wk =   0.0080000
        k(  120) = (   0.5250000   0.5125000   0.5250000), wk =   0.0080000
        k(  121) = (   0.5250000   0.5250000   0.4750000), wk =   0.0080000
        k(  122) = (   0.5250000   0.5250000   0.4875000), wk =   0.0080000
        k(  123) = (   0.5250000   0.5250000   0.5000000), wk =   0.0080000
        k(  124) = (   0.5250000   0.5250000   0.5125000), wk =   0.0080000
        k(  125) = (   0.5250000   0.5250000   0.5250000), wk =   0.0080000

     Dense  grid:    29627 G-vectors     FFT dimensions: (  45,  45,  45)

     Largest allocated arrays     est. size (Mb)     dimensions
        Kohn-Sham Wavefunctions         0.54 Mb     (    1484,   24)
        NL pseudopotentials             0.36 Mb     (     742,   32)
        Each V/rho on FFT grid          0.28 Mb     (   18225)
        Each G-vector array             0.05 Mb     (    5926)
        G-vector shells                 0.00 Mb     (     311)
     Largest temporary arrays     est. size (Mb)     dimensions
        Auxiliary wavefunctions         2.17 Mb     (    1484,   96)
        Each subspace H/S matrix        0.14 Mb     (      96,   96)
        Each <psi_i|beta_j> matrix      0.02 Mb     (      32,   2,   24)

     The potential is recalculated from file :
     /scratch/qichen/PbTe/large/PbTe_rel.save/charge-density.dat

     Starting wfc are   16 randomized atomic wfcs +    8 random wfc

     Band Structure Calculation
     Davidson diagonalization with overlap

     Computing kpt #:     1
     total cpu time spent up to now is        2.4 secs

     Computing kpt #:     2
     total cpu time spent up to now is        3.4 secs

     Computing kpt #:     3
     total cpu time spent up to now is        4.3 secs

     Computing kpt #:     4
     total cpu time spent up to now is        5.3 secs

     Computing kpt #:     5
     total cpu time spent up to now is        6.2 secs

     Computing kpt #:     6
     total cpu time spent up to now is        7.2 secs

     Computing kpt #:     7
     total cpu time spent up to now is        8.1 secs

     Computing kpt #:     8
     total cpu time spent up to now is        9.1 secs

     Computing kpt #:     9
     total cpu time spent up to now is       10.0 secs

     Computing kpt #:    10
     total cpu time spent up to now is       11.0 secs

     Computing kpt #:    11
     total cpu time spent up to now is       11.9 secs

     Computing kpt #:    12
     total cpu time spent up to now is       12.9 secs

     Computing kpt #:    13
     total cpu time spent up to now is       13.9 secs

     Computing kpt #:    14
     total cpu time spent up to now is       14.8 secs

     Computing kpt #:    15
     total cpu time spent up to now is       15.8 secs

     Computing kpt #:    16
     total cpu time spent up to now is       16.7 secs

     Computing kpt #:    17
     total cpu time spent up to now is       17.7 secs

     Computing kpt #:    18
     total cpu time spent up to now is       18.6 secs

     Computing kpt #:    19
     total cpu time spent up to now is       19.6 secs

     Computing kpt #:    20
     total cpu time spent up to now is       20.5 secs

     Computing kpt #:    21
     total cpu time spent up to now is       21.5 secs

     Computing kpt #:    22
     total cpu time spent up to now is       22.4 secs

     Computing kpt #:    23
     total cpu time spent up to now is       23.4 secs

     Computing kpt #:    24
     total cpu time spent up to now is       24.4 secs

     Computing kpt #:    25
     total cpu time spent up to now is       25.3 secs

     Computing kpt #:    26
     total cpu time spent up to now is       26.3 secs

     Computing kpt #:    27
     total cpu time spent up to now is       27.2 secs

     Computing kpt #:    28
     total cpu time spent up to now is       28.2 secs

     Computing kpt #:    29
     total cpu time spent up to now is       29.1 secs

     Computing kpt #:    30
     total cpu time spent up to now is       30.1 secs

     Computing kpt #:    31
     total cpu time spent up to now is       31.1 secs

     Computing kpt #:    32
     total cpu time spent up to now is       32.0 secs

     ethr =  1.00E-14,  avg # of iterations = 31.0

     total cpu time spent up to now is       32.0 secs

     End of band structure calculation

          k =-0.4750 0.4750 0.4750 (  3729 PWs)   bands (ev):

    -5.6616  -5.6616  -3.4928  -3.4928   3.9770   3.9770   4.6220   4.6220
     5.2207   5.2207   5.4664   5.4664   6.5421   6.5421   7.0855   7.0855
    13.7888  13.7888  14.6117  14.6117  14.9337  14.9337  15.1620  15.1620

          k =-0.4875 0.4875 0.4625 (  3729 PWs)   bands (ev):

    -5.6541  -5.6541  -3.5009  -3.5009   3.9699   3.9699   4.5973   4.5973
     5.2075   5.2075   5.4891   5.4891   6.5507   6.5507   7.0967   7.0967
    13.8158  13.8158  14.6007  14.6007  14.9659  14.9659  15.1510  15.1510

          k =-0.5000 0.5000 0.4500 (  3729 PWs)   bands (ev):

    -5.6462  -5.6462  -3.5052  -3.5052   3.9411   3.9411   4.5282   4.5282
     5.1771   5.1771   5.5485   5.5485   6.5875   6.5875   7.1406   7.1406
    13.8083  13.8083  14.5705  14.5705  14.9651  14.9651  15.1692  15.1692

          k =-0.5125 0.5125 0.4375 (  3727 PWs)   bands (ev):

    -5.6380  -5.6380  -3.5054  -3.5054   3.8899   3.8899   4.4322   4.4322
     5.1290   5.1290   5.6338   5.6338   6.6482   6.6482   7.2157   7.2157
    13.7700  13.7700  14.5192  14.5192  14.9272  14.9272  15.2230  15.2230

          k =-0.5250 0.5250 0.4250 (  3723 PWs)   bands (ev):

    -5.6295  -5.6295  -3.5016  -3.5016   3.8170   3.8170   4.3242   4.3242
     5.0638   5.0638   5.7371   5.7371   6.7280   6.7280   7.3187   7.3187
    13.7010  13.7010  14.4513  14.4513  14.8841  14.8841  15.2885  15.2885

          k =-0.4625 0.4875 0.4875 (  3729 PWs)   bands (ev):

    -5.6541  -5.6541  -3.5009  -3.5009   3.9699   3.9699   4.5973   4.5973
     5.2075   5.2075   5.4891   5.4891   6.5507   6.5507   7.0967   7.0967
    13.8158  13.8158  14.6007  14.6007  14.9659  14.9659  15.1510  15.1510

          k =-0.4750 0.5000 0.4750 (  3727 PWs)   bands (ev):

    -5.6486  -5.6486  -3.5086  -3.5086   3.9733   3.9733   4.5979   4.5979
     5.2020   5.2020   5.4923   5.4923   6.5465   6.5465   7.0921   7.0921
    13.8529  13.8529  14.5941  14.5941  14.9956  14.9956  15.1420  15.1420

          k =-0.4875 0.5125 0.4625 (  3727 PWs)   bands (ev):

    -5.6427  -5.6427  -3.5122  -3.5122   3.9554   3.9554   4.5493   4.5493
     5.1785   5.1785   5.5359   5.5359   6.5721   6.5721   7.1199   7.1199
    13.8511  13.8511  14.5727  14.5727  15.0092  15.0092  15.1429  15.1429

          k =-0.5000 0.5250 0.4500 (  3729 PWs)   bands (ev):

    -5.6365  -5.6365  -3.5119  -3.5119   3.9159   3.9159   4.4647   4.4647
     5.1401   5.1401   5.6080   5.6080   6.6243   6.6243   7.1793   7.1793
    13.8139  13.8139  14.5319  14.5319  14.9917  14.9917  15.1711  15.1711

          k =-0.5125 0.5375 0.4375 (  3726 PWs)   bands (ev):

    -5.6300  -5.6300  -3.5075  -3.5075   3.8553   3.8553   4.3600   4.3600
     5.0850   5.0850   5.7010   5.7010   6.6988   6.6988   7.2677   7.2677
    13.7427  13.7427  14.4755  14.4755  14.9619  14.9619  15.2162  15.2162

          k =-0.4500 0.5000 0.5000 (  3729 PWs)   bands (ev):

    -5.6462  -5.6462  -3.5052  -3.5052   3.9411   3.9411   4.5282   4.5282
     5.1771   5.1771   5.5485   5.5485   6.5875   6.5875   7.1406   7.1406
    13.8083  13.8083  14.5705  14.5705  14.9651  14.9651  15.1692  15.1692

          k =-0.4625 0.5125 0.4875 (  3727 PWs)   bands (ev):

    -5.6427  -5.6427  -3.5122  -3.5122   3.9554   3.9554   4.5493   4.5493
     5.1785   5.1785   5.5359   5.5359   6.5721   6.5721   7.1199   7.1199
    13.8511  13.8511  14.5727  14.5727  15.0092  15.0092  15.1429  15.1429

          k =-0.4750 0.5250 0.4750 (  3727 PWs)   bands (ev):

    -5.6388  -5.6388  -3.5153  -3.5153   3.9480   3.9480   4.5261   4.5261
     5.1614   5.1614   5.5612   5.5612   6.5848   6.5848   7.1317   7.1317
    13.8548  13.8548  14.5620  14.5620  15.0399  15.0399  15.1242  15.1242

          k =-0.4875 0.5375 0.4625 (  3727 PWs)   bands (ev):

    -5.6346  -5.6346  -3.5144  -3.5144   3.9188   3.9188   4.4630   4.4630
     5.1333   5.1333   5.6141   5.6141   6.6248   6.6248   7.1759   7.1759
    13.8228  13.8228  14.5317  14.5317  15.0339  15.0339  15.1372  15.1372

          k =-0.5000 0.5500 0.4500 (  3724 PWs)   bands (ev):

    -5.6301  -5.6301  -3.5095  -3.5095   3.8687   3.8687   4.3713   4.3713
     5.0936   5.0936   5.6873   5.6873   6.6898   6.6898   7.2499   7.2499
    13.7561  13.7561  14.4827  14.4827  15.0153  15.0153  15.1671  15.1671

          k =-0.4375 0.5125 0.5125 (  3727 PWs)   bands (ev):

    -5.6380  -5.6380  -3.5054  -3.5054   3.8899   3.8899   4.4322   4.4322
     5.1290   5.1290   5.6338   5.6338   6.6482   6.6482   7.2157   7.2157
    13.7700  13.7700  14.5192  14.5192  14.9272  14.9272  15.2230  15.2230

          k =-0.4500 0.5250 0.5000 (  3729 PWs)   bands (ev):

    -5.6365  -5.6365  -3.5119  -3.5119   3.9159   3.9159   4.4647   4.4647
     5.1401   5.1401   5.6080   5.6080   6.6243   6.6243   7.1793   7.1793
    13.8139  13.8139  14.5319  14.5319  14.9917  14.9917  15.1711  15.1711

          k =-0.4625 0.5375 0.4875 (  3727 PWs)   bands (ev):

    -5.6346  -5.6346  -3.5144  -3.5144   3.9188   3.9188   4.4630   4.4630
     5.1333   5.1333   5.6141   5.6141   6.6248   6.6248   7.1759   7.1759
    13.8228  13.8228  14.5317  14.5317  15.0339  15.0339  15.1372  15.1372

          k =-0.4750 0.5500 0.4750 (  3729 PWs)   bands (ev):

    -5.6325  -5.6325  -3.5130  -3.5130   3.8980   3.8980   4.4270   4.4270
     5.1132   5.1132   5.6478   5.6478   6.6494   6.6494   7.2062   7.2062
    13.7990  13.7990  14.5139  14.5139  15.0022  15.0022  15.1707  15.1707

          k =-0.4875 0.5625 0.4625 (  3726 PWs)   bands (ev):

    -5.6300  -5.6300  -3.5075  -3.5075   3.8553   3.8553   4.3600   4.3600
     5.0850   5.0850   5.7010   5.7010   6.6988   6.6988   7.2677   7.2677
    13.7427  13.7427  14.4755  14.4755  14.9619  14.9619  15.2162  15.2162

          k =-0.4250 0.5250 0.5250 (  3723 PWs)   bands (ev):

    -5.6295  -5.6295  -3.5016  -3.5016   3.8170   3.8170   4.3242   4.3242
     5.0638   5.0638   5.7371   5.7371   6.7280   6.7280   7.3187   7.3187
    13.7010  13.7010  14.4513  14.4513  14.8841  14.8841  15.2885  15.2885

          k =-0.4375 0.5375 0.5125 (  3726 PWs)   bands (ev):

    -5.6300  -5.6300  -3.5075  -3.5075   3.8553   3.8553   4.3600   4.3600
     5.0850   5.0850   5.7010   5.7010   6.6988   6.6988   7.2677   7.2677
    13.7427  13.7427  14.4755  14.4755  14.9619  14.9619  15.2162  15.2162

          k =-0.4500 0.5500 0.5000 (  3724 PWs)   bands (ev):

    -5.6301  -5.6301  -3.5095  -3.5095   3.8687   3.8687   4.3713   4.3713
     5.0936   5.0936   5.6873   5.6873   6.6898   6.6898   7.2499   7.2499
    13.7561  13.7561  14.4827  14.4827  15.0153  15.0153  15.1671  15.1671

          k =-0.4625 0.5625 0.4875 (  3726 PWs)   bands (ev):

    -5.6300  -5.6300  -3.5075  -3.5075   3.8553   3.8553   4.3600   4.3600
     5.0850   5.0850   5.7010   5.7010   6.6988   6.6988   7.2677   7.2677
    13.7427  13.7427  14.4755  14.4755  14.9619  14.9619  15.2162  15.2162

          k =-0.4750 0.5750 0.4750 (  3723 PWs)   bands (ev):

    -5.6295  -5.6295  -3.5016  -3.5016   3.8170   3.8170   4.3242   4.3242
     5.0638   5.0638   5.7371   5.7371   6.7280   6.7280   7.3187   7.3187
    13.7010  13.7010  14.4513  14.4513  14.8841  14.8841  15.2885  15.2885

          k =-0.4875 0.4625 0.4875 (  3729 PWs)   bands (ev):

    -5.6541  -5.6541  -3.5009  -3.5009   3.9699   3.9699   4.5973   4.5973
     5.2075   5.2075   5.4891   5.4891   6.5507   6.5507   7.0967   7.0967
    13.8158  13.8158  14.6007  14.6007  14.9659  14.9659  15.1510  15.1510

          k =-0.5000 0.4750 0.4750 (  3727 PWs)   bands (ev):

    -5.6486  -5.6486  -3.5086  -3.5086   3.9733   3.9733   4.5979   4.5979
     5.2020   5.2020   5.4923   5.4923   6.5465   6.5465   7.0921   7.0921
    13.8529  13.8529  14.5941  14.5941  14.9956  14.9956  15.1420  15.1420

          k =-0.5125 0.4875 0.4625 (  3727 PWs)   bands (ev):

    -5.6427  -5.6427  -3.5122  -3.5122   3.9554   3.9554   4.5493   4.5493
     5.1785   5.1785   5.5359   5.5359   6.5721   6.5721   7.1199   7.1199
    13.8511  13.8511  14.5727  14.5727  15.0092  15.0092  15.1429  15.1429

          k =-0.5250 0.5000 0.4500 (  3729 PWs)   bands (ev):

    -5.6365  -5.6365  -3.5119  -3.5119   3.9159   3.9159   4.4647   4.4647
     5.1401   5.1401   5.6080   5.6080   6.6243   6.6243   7.1793   7.1793
    13.8139  13.8139  14.5319  14.5319  14.9917  14.9917  15.1711  15.1711

          k =-0.5375 0.5125 0.4375 (  3726 PWs)   bands (ev):

    -5.6300  -5.6300  -3.5075  -3.5075   3.8553   3.8553   4.3600   4.3600
     5.0850   5.0850   5.7010   5.7010   6.6988   6.6988   7.2677   7.2677
    13.7427  13.7427  14.4755  14.4755  14.9619  14.9619  15.2162  15.2162

          k =-0.4750 0.4750 0.5000 (  3727 PWs)   bands (ev):

    -5.6486  -5.6486  -3.5086  -3.5086   3.9733   3.9733   4.5979   4.5979
     5.2020   5.2020   5.4923   5.4923   6.5465   6.5465   7.0921   7.0921
    13.8529  13.8529  14.5941  14.5941  14.9956  14.9956  15.1420  15.1420

          k =-0.4875 0.4875 0.4875 (  3729 PWs)   bands (ev):

    -5.6451  -5.6451  -3.5157  -3.5157   3.9851   3.9851   4.6256   4.6256
     5.2156   5.2156   5.4647   5.4647   6.5273   6.5273   7.0739   7.0739
    13.9058  13.9058  14.5812  14.5812  15.0183  15.0183  15.1445  15.1445

          k =-0.5000 0.5000 0.4750 (  3727 PWs)   bands (ev):

    -5.6412  -5.6412  -3.5188  -3.5188   3.9767   3.9767   4.5992   4.5992
     5.2025   5.2025   5.4891   5.4891   6.5398   6.5398   7.0872   7.0872
    13.9129  13.9129  14.5661  14.5661  15.0328  15.0328  15.1420  15.1420

          k =-0.5125 0.5125 0.4625 (  3727 PWs)   bands (ev):

    -5.6370  -5.6370  -3.5179  -3.5179   3.9476   3.9476   4.5270   4.5270
     5.1681   5.1681   5.5543   5.5543   6.5821   6.5821   7.1319   7.1319
    13.8763  13.8763  14.5441  14.5441  15.0270  15.0270  15.1472  15.1472

          k =-0.5250 0.5250 0.4500 (  3729 PWs)   bands (ev):

    -5.6325  -5.6325  -3.5130  -3.5130   3.8980   3.8980   4.4270   4.4270
     5.1132   5.1132   5.6478   5.6478   6.6494   6.6494   7.2062   7.2062
    13.7990  13.7990  14.5139  14.5139  15.0022  15.0022  15.1707  15.1707

          k =-0.4625 0.4875 0.5125 (  3727 PWs)   bands (ev):

    -5.6427  -5.6427  -3.5122  -3.5122   3.9554   3.9554   4.5493   4.5493
     5.1785   5.1785   5.5359   5.5359   6.5721   6.5721   7.1199   7.1199
    13.8511  13.8511  14.5727  14.5727  15.0092  15.0092  15.1429  15.1429

          k =-0.4750 0.5000 0.5000 (  3727 PWs)   bands (ev):

    -5.6412  -5.6412  -3.5188  -3.5188   3.9767   3.9767   4.5992   4.5992
     5.2025   5.2025   5.4891   5.4891   6.5398   6.5398   7.0872   7.0872
    13.9129  13.9129  14.5661  14.5661  15.0328  15.0328  15.1420  15.1420

          k =-0.4875 0.5125 0.4875 (  3723 PWs)   bands (ev):

    -5.6393  -5.6393  -3.5214  -3.5214   3.9778   3.9778   4.5994   4.5994
     5.2006   5.2006   5.4902   5.4902   6.5384   6.5384   7.0856   7.0856
    13.9283  13.9283  14.5589  14.5589  15.0478  15.0478  15.1375  15.1375

          k =-0.5000 0.5250 0.4750 (  3728 PWs)   bands (ev):

    -5.6371  -5.6371  -3.5199  -3.5199   3.9584   3.9584   4.5495   4.5495
     5.1773   5.1773   5.5353   5.5353   6.5677   6.5677   7.1157   7.1157
    13.8972  13.8972  14.5482  14.5482  15.0485  15.0485  15.1319  15.1319

          k =-0.5125 0.5375 0.4625 (  3727 PWs)   bands (ev):

    -5.6346  -5.6346  -3.5144  -3.5144   3.9188   3.9188   4.4630   4.4630
     5.1333   5.1333   5.6141   5.6141   6.6248   6.6248   7.1759   7.1759
    13.8228  13.8228  14.5317  14.5317  15.0339  15.0339  15.1372  15.1372

          k =-0.4500 0.5000 0.5250 (  3729 PWs)   bands (ev):

    -5.6365  -5.6365  -3.5119  -3.5119   3.9159   3.9159   4.4647   4.4647
     5.1401   5.1401   5.6080   5.6080   6.6243   6.6243   7.1793   7.1793
    13.8139  13.8139  14.5319  14.5319  14.9917  14.9917  15.1711  15.1711

          k =-0.4625 0.5125 0.5125 (  3727 PWs)   bands (ev):

    -5.6370  -5.6370  -3.5179  -3.5179   3.9476   3.9476   4.5270   4.5270
     5.1681   5.1681   5.5543   5.5543   6.5821   6.5821   7.1319   7.1319
    13.8763  13.8763  14.5441  14.5441  15.0270  15.0270  15.1472  15.1472

          k =-0.4750 0.5250 0.5000 (  3728 PWs)   bands (ev):

    -5.6371  -5.6371  -3.5199  -3.5199   3.9584   3.9584   4.5495   4.5495
     5.1773   5.1773   5.5353   5.5353   6.5677   6.5677   7.1157   7.1157
    13.8972  13.8972  14.5482  14.5482  15.0485  15.0485  15.1319  15.1319

          k =-0.4875 0.5375 0.4875 (  3727 PWs)   bands (ev):

    -5.6370  -5.6370  -3.5179  -3.5179   3.9476   3.9476   4.5270   4.5270
     5.1681   5.1681   5.5543   5.5543   6.5821   6.5821   7.1319   7.1319
    13.8763  13.8763  14.5441  14.5441  15.0270  15.0270  15.1472  15.1472

          k =-0.5000 0.5500 0.4750 (  3729 PWs)   bands (ev):

    -5.6365  -5.6365  -3.5119  -3.5119   3.9159   3.9159   4.4647   4.4647
     5.1401   5.1401   5.6080   5.6080   6.6243   6.6243   7.1793   7.1793
    13.8139  13.8139  14.5319  14.5319  14.9917  14.9917  15.1711  15.1711

          k =-0.4375 0.5125 0.5375 (  3726 PWs)   bands (ev):

    -5.6300  -5.6300  -3.5075  -3.5075   3.8553   3.8553   4.3600   4.3600
     5.0850   5.0850   5.7010   5.7010   6.6988   6.6988   7.2677   7.2677
    13.7427  13.7427  14.4755  14.4755  14.9619  14.9619  15.2162  15.2162

          k =-0.4500 0.5250 0.5250 (  3729 PWs)   bands (ev):

    -5.6325  -5.6325  -3.5130  -3.5130   3.8980   3.8980   4.4270   4.4270
     5.1132   5.1132   5.6478   5.6478   6.6494   6.6494   7.2062   7.2062
    13.7990  13.7990  14.5139  14.5139  15.0022  15.0022  15.1707  15.1707

          k =-0.4625 0.5375 0.5125 (  3727 PWs)   bands (ev):

    -5.6346  -5.6346  -3.5144  -3.5144   3.9188   3.9188   4.4630   4.4630
     5.1333   5.1333   5.6141   5.6141   6.6248   6.6248   7.1759   7.1759
    13.8228  13.8228  14.5317  14.5317  15.0339  15.0339  15.1372  15.1372

          k =-0.4750 0.5500 0.5000 (  3729 PWs)   bands (ev):

    -5.6365  -5.6365  -3.5119  -3.5119   3.9159   3.9159   4.4647   4.4647
     5.1401   5.1401   5.6080   5.6080   6.6243   6.6243   7.1793   7.1793
    13.8139  13.8139  14.5319  14.5319  14.9917  14.9917  15.1711  15.1711

          k =-0.4875 0.5625 0.4875 (  3727 PWs)   bands (ev):

    -5.6380  -5.6380  -3.5054  -3.5054   3.8899   3.8899   4.4322   4.4322
     5.1290   5.1290   5.6338   5.6338   6.6482   6.6482   7.2157   7.2157
    13.7700  13.7700  14.5192  14.5192  14.9272  14.9272  15.2230  15.2230

          k =-0.5000 0.4500 0.5000 (  3729 PWs)   bands (ev):

    -5.6462  -5.6462  -3.5052  -3.5052   3.9411   3.9411   4.5282   4.5282
     5.1771   5.1771   5.5485   5.5485   6.5875   6.5875   7.1406   7.1406
    13.8083  13.8083  14.5705  14.5705  14.9651  14.9651  15.1692  15.1692

          k =-0.5125 0.4625 0.4875 (  3727 PWs)   bands (ev):

    -5.6427  -5.6427  -3.5122  -3.5122   3.9554   3.9554   4.5493   4.5493
     5.1785   5.1785   5.5359   5.5359   6.5721   6.5721   7.1199   7.1199
    13.8511  13.8511  14.5727  14.5727  15.0092  15.0092  15.1429  15.1429

          k =-0.5250 0.4750 0.4750 (  3727 PWs)   bands (ev):

    -5.6388  -5.6388  -3.5153  -3.5153   3.9480   3.9480   4.5261   4.5261
     5.1614   5.1614   5.5612   5.5612   6.5848   6.5848   7.1317   7.1317
    13.8548  13.8548  14.5620  14.5620  15.0399  15.0399  15.1242  15.1242

          k =-0.5375 0.4875 0.4625 (  3727 PWs)   bands (ev):

    -5.6346  -5.6346  -3.5144  -3.5144   3.9188   3.9188   4.4630   4.4630
     5.1333   5.1333   5.6141   5.6141   6.6248   6.6248   7.1759   7.1759
    13.8228  13.8228  14.5317  14.5317  15.0339  15.0339  15.1372  15.1372

          k =-0.5500 0.5000 0.4500 (  3724 PWs)   bands (ev):

    -5.6301  -5.6301  -3.5095  -3.5095   3.8687   3.8687   4.3713   4.3713
     5.0936   5.0936   5.6873   5.6873   6.6898   6.6898   7.2499   7.2499
    13.7561  13.7561  14.4827  14.4827  15.0153  15.0153  15.1671  15.1671

          k =-0.4875 0.4625 0.5125 (  3727 PWs)   bands (ev):

    -5.6427  -5.6427  -3.5122  -3.5122   3.9554   3.9554   4.5493   4.5493
     5.1785   5.1785   5.5359   5.5359   6.5721   6.5721   7.1199   7.1199
    13.8511  13.8511  14.5727  14.5727  15.0092  15.0092  15.1429  15.1429

          k =-0.5000 0.4750 0.5000 (  3727 PWs)   bands (ev):

    -5.6412  -5.6412  -3.5188  -3.5188   3.9767   3.9767   4.5992   4.5992
     5.2025   5.2025   5.4891   5.4891   6.5398   6.5398   7.0872   7.0872
    13.9129  13.9129  14.5661  14.5661  15.0328  15.0328  15.1420  15.1420

          k =-0.5125 0.4875 0.4875 (  3723 PWs)   bands (ev):

    -5.6393  -5.6393  -3.5214  -3.5214   3.9778   3.9778   4.5994   4.5994
     5.2006   5.2006   5.4902   5.4902   6.5384   6.5384   7.0856   7.0856
    13.9283  13.9283  14.5589  14.5589  15.0478  15.0478  15.1375  15.1375

          k =-0.5250 0.5000 0.4750 (  3728 PWs)   bands (ev):

    -5.6371  -5.6371  -3.5199  -3.5199   3.9584   3.9584   4.5495   4.5495
     5.1773   5.1773   5.5353   5.5353   6.5677   6.5677   7.1157   7.1157
    13.8972  13.8972  14.5482  14.5482  15.0485  15.0485  15.1319  15.1319

          k =-0.5375 0.5125 0.4625 (  3727 PWs)   bands (ev):

    -5.6346  -5.6346  -3.5144  -3.5144   3.9188   3.9188   4.4630   4.4630
     5.1333   5.1333   5.6141   5.6141   6.6248   6.6248   7.1759   7.1759
    13.8228  13.8228  14.5317  14.5317  15.0339  15.0339  15.1372  15.1372

          k =-0.4750 0.4750 0.5250 (  3727 PWs)   bands (ev):

    -5.6388  -5.6388  -3.5153  -3.5153   3.9480   3.9480   4.5261   4.5261
     5.1614   5.1614   5.5612   5.5612   6.5848   6.5848   7.1317   7.1317
    13.8548  13.8548  14.5620  14.5620  15.0399  15.0399  15.1242  15.1242

          k =-0.4875 0.4875 0.5125 (  3723 PWs)   bands (ev):

    -5.6393  -5.6393  -3.5214  -3.5214   3.9778   3.9778   4.5994   4.5994
     5.2006   5.2006   5.4902   5.4902   6.5384   6.5384   7.0856   7.0856
    13.9283  13.9283  14.5589  14.5589  15.0478  15.0478  15.1375  15.1375

          k =-0.5000 0.5000 0.5000 (  3708 PWs)   bands (ev):

    -5.6395  -5.6395  -3.5234  -3.5234   3.9879   3.9879   4.6268   4.6268
     5.2136   5.2136   5.4643   5.4643   6.5223   6.5223   7.0700   7.0700
    13.9536  13.9536  14.5573  14.5573  15.0496  15.0496  15.1458  15.1458

          k =-0.5125 0.5125 0.4875 (  3723 PWs)   bands (ev):

    -5.6393  -5.6393  -3.5214  -3.5214   3.9778   3.9778   4.5994   4.5994
     5.2006   5.2006   5.4902   5.4902   6.5384   6.5384   7.0856   7.0856
    13.9283  13.9283  14.5589  14.5589  15.0478  15.0478  15.1375  15.1375

          k =-0.5250 0.5250 0.4750 (  3727 PWs)   bands (ev):

    -5.6388  -5.6388  -3.5153  -3.5153   3.9480   3.9480   4.5261   4.5261
     5.1614   5.1614   5.5612   5.5612   6.5848   6.5848   7.1317   7.1317
    13.8548  13.8548  14.5620  14.5620  15.0399  15.0399  15.1242  15.1242

          k =-0.4625 0.4875 0.5375 (  3727 PWs)   bands (ev):

    -5.6346  -5.6346  -3.5144  -3.5144   3.9188   3.9188   4.4630   4.4630
     5.1333   5.1333   5.6141   5.6141   6.6248   6.6248   7.1759   7.1759
    13.8228  13.8228  14.5317  14.5317  15.0339  15.0339  15.1372  15.1372

          k =-0.4750 0.5000 0.5250 (  3728 PWs)   bands (ev):

    -5.6371  -5.6371  -3.5199  -3.5199   3.9584   3.9584   4.5495   4.5495
     5.1773   5.1773   5.5353   5.5353   6.5677   6.5677   7.1157   7.1157
    13.8972  13.8972  14.5482  14.5482  15.0485  15.0485  15.1319  15.1319

          k =-0.4875 0.5125 0.5125 (  3723 PWs)   bands (ev):

    -5.6393  -5.6393  -3.5214  -3.5214   3.9778   3.9778   4.5994   4.5994
     5.2006   5.2006   5.4902   5.4902   6.5384   6.5384   7.0856   7.0856
    13.9283  13.9283  14.5589  14.5589  15.0478  15.0478  15.1375  15.1375

          k =-0.5000 0.5250 0.5000 (  3727 PWs)   bands (ev):

    -5.6412  -5.6412  -3.5188  -3.5188   3.9767   3.9767   4.5992   4.5992
     5.2025   5.2025   5.4891   5.4891   6.5398   6.5398   7.0872   7.0872
    13.9129  13.9129  14.5661  14.5661  15.0328  15.0328  15.1420  15.1420

          k =-0.5125 0.5375 0.4875 (  3727 PWs)   bands (ev):

    -5.6427  -5.6427  -3.5122  -3.5122   3.9554   3.9554   4.5493   4.5493
     5.1785   5.1785   5.5359   5.5359   6.5721   6.5721   7.1199   7.1199
    13.8511  13.8511  14.5727  14.5727  15.0092  15.0092  15.1429  15.1429

          k =-0.4500 0.5000 0.5500 (  3724 PWs)   bands (ev):

    -5.6301  -5.6301  -3.5095  -3.5095   3.8687   3.8687   4.3713   4.3713
     5.0936   5.0936   5.6873   5.6873   6.6898   6.6898   7.2499   7.2499
    13.7561  13.7561  14.4827  14.4827  15.0153  15.0153  15.1671  15.1671

          k =-0.4625 0.5125 0.5375 (  3727 PWs)   bands (ev):

    -5.6346  -5.6346  -3.5144  -3.5144   3.9188   3.9188   4.4630   4.4630
     5.1333   5.1333   5.6141   5.6141   6.6248   6.6248   7.1759   7.1759
    13.8228  13.8228  14.5317  14.5317  15.0339  15.0339  15.1372  15.1372

          k =-0.4750 0.5250 0.5250 (  3727 PWs)   bands (ev):

    -5.6388  -5.6388  -3.5153  -3.5153   3.9480   3.9480   4.5261   4.5261
     5.1614   5.1614   5.5612   5.5612   6.5848   6.5848   7.1317   7.1317
    13.8548  13.8548  14.5620  14.5620  15.0399  15.0399  15.1242  15.1242

          k =-0.4875 0.5375 0.5125 (  3727 PWs)   bands (ev):

    -5.6427  -5.6427  -3.5122  -3.5122   3.9554   3.9554   4.5493   4.5493
     5.1785   5.1785   5.5359   5.5359   6.5721   6.5721   7.1199   7.1199
    13.8511  13.8511  14.5727  14.5727  15.0092  15.0092  15.1429  15.1429

          k =-0.5000 0.5500 0.5000 (  3729 PWs)   bands (ev):

    -5.6462  -5.6462  -3.5052  -3.5052   3.9411   3.9411   4.5282   4.5282
     5.1771   5.1771   5.5485   5.5485   6.5875   6.5875   7.1406   7.1406
    13.8083  13.8083  14.5705  14.5705  14.9651  14.9651  15.1692  15.1692

          k =-0.5125 0.4375 0.5125 (  3727 PWs)   bands (ev):

    -5.6380  -5.6380  -3.5054  -3.5054   3.8899   3.8899   4.4322   4.4322
     5.1290   5.1290   5.6338   5.6338   6.6482   6.6482   7.2157   7.2157
    13.7700  13.7700  14.5192  14.5192  14.9272  14.9272  15.2230  15.2230

          k =-0.5250 0.4500 0.5000 (  3729 PWs)   bands (ev):

    -5.6365  -5.6365  -3.5119  -3.5119   3.9159   3.9159   4.4647   4.4647
     5.1401   5.1401   5.6080   5.6080   6.6243   6.6243   7.1793   7.1793
    13.8139  13.8139  14.5319  14.5319  14.9917  14.9917  15.1711  15.1711

          k =-0.5375 0.4625 0.4875 (  3727 PWs)   bands (ev):

    -5.6346  -5.6346  -3.5144  -3.5144   3.9188   3.9188   4.4630   4.4630
     5.1333   5.1333   5.6141   5.6141   6.6248   6.6248   7.1759   7.1759
    13.8228  13.8228  14.5317  14.5317  15.0339  15.0339  15.1372  15.1372

          k =-0.5500 0.4750 0.4750 (  3729 PWs)   bands (ev):

    -5.6325  -5.6325  -3.5130  -3.5130   3.8980   3.8980   4.4270   4.4270
     5.1132   5.1132   5.6478   5.6478   6.6494   6.6494   7.2062   7.2062
    13.7990  13.7990  14.5139  14.5139  15.0022  15.0022  15.1707  15.1707

          k =-0.5625 0.4875 0.4625 (  3726 PWs)   bands (ev):

    -5.6300  -5.6300  -3.5075  -3.5075   3.8553   3.8553   4.3600   4.3600
     5.0850   5.0850   5.7010   5.7010   6.6988   6.6988   7.2677   7.2677
    13.7427  13.7427  14.4755  14.4755  14.9619  14.9619  15.2162  15.2162

          k =-0.5000 0.4500 0.5250 (  3729 PWs)   bands (ev):

    -5.6365  -5.6365  -3.5119  -3.5119   3.9159   3.9159   4.4647   4.4647
     5.1401   5.1401   5.6080   5.6080   6.6243   6.6243   7.1793   7.1793
    13.8139  13.8139  14.5319  14.5319  14.9917  14.9917  15.1711  15.1711

          k =-0.5125 0.4625 0.5125 (  3727 PWs)   bands (ev):

    -5.6370  -5.6370  -3.5179  -3.5179   3.9476   3.9476   4.5270   4.5270
     5.1681   5.1681   5.5543   5.5543   6.5821   6.5821   7.1319   7.1319
    13.8763  13.8763  14.5441  14.5441  15.0270  15.0270  15.1472  15.1472

          k =-0.5250 0.4750 0.5000 (  3728 PWs)   bands (ev):

    -5.6371  -5.6371  -3.5199  -3.5199   3.9584   3.9584   4.5495   4.5495
     5.1773   5.1773   5.5353   5.5353   6.5677   6.5677   7.1157   7.1157
    13.8972  13.8972  14.5482  14.5482  15.0485  15.0485  15.1319  15.1319

          k =-0.5375 0.4875 0.4875 (  3727 PWs)   bands (ev):

    -5.6370  -5.6370  -3.5179  -3.5179   3.9476   3.9476   4.5270   4.5270
     5.1681   5.1681   5.5543   5.5543   6.5821   6.5821   7.1319   7.1319
    13.8763  13.8763  14.5441  14.5441  15.0270  15.0270  15.1472  15.1472

          k =-0.5500 0.5000 0.4750 (  3729 PWs)   bands (ev):

    -5.6365  -5.6365  -3.5119  -3.5119   3.9159   3.9159   4.4647   4.4647
     5.1401   5.1401   5.6080   5.6080   6.6243   6.6243   7.1793   7.1793
    13.8139  13.8139  14.5319  14.5319  14.9917  14.9917  15.1711  15.1711

          k =-0.4875 0.4625 0.5375 (  3727 PWs)   bands (ev):

    -5.6346  -5.6346  -3.5144  -3.5144   3.9188   3.9188   4.4630   4.4630
     5.1333   5.1333   5.6141   5.6141   6.6248   6.6248   7.1759   7.1759
    13.8228  13.8228  14.5317  14.5317  15.0339  15.0339  15.1372  15.1372

          k =-0.5000 0.4750 0.5250 (  3728 PWs)   bands (ev):

    -5.6371  -5.6371  -3.5199  -3.5199   3.9584   3.9584   4.5495   4.5495
     5.1773   5.1773   5.5353   5.5353   6.5677   6.5677   7.1157   7.1157
    13.8972  13.8972  14.5482  14.5482  15.0485  15.0485  15.1319  15.1319

          k =-0.5125 0.4875 0.5125 (  3723 PWs)   bands (ev):

    -5.6393  -5.6393  -3.5214  -3.5214   3.9778   3.9778   4.5994   4.5994
     5.2006   5.2006   5.4902   5.4902   6.5384   6.5384   7.0856   7.0856
    13.9283  13.9283  14.5589  14.5589  15.0478  15.0478  15.1375  15.1375

          k =-0.5250 0.5000 0.5000 (  3727 PWs)   bands (ev):

    -5.6412  -5.6412  -3.5188  -3.5188   3.9767   3.9767   4.5992   4.5992
     5.2025   5.2025   5.4891   5.4891   6.5398   6.5398   7.0872   7.0872
    13.9129  13.9129  14.5661  14.5661  15.0328  15.0328  15.1420  15.1420

          k =-0.5375 0.5125 0.4875 (  3727 PWs)   bands (ev):

    -5.6427  -5.6427  -3.5122  -3.5122   3.9554   3.9554   4.5493   4.5493
     5.1785   5.1785   5.5359   5.5359   6.5721   6.5721   7.1199   7.1199
    13.8511  13.8511  14.5727  14.5727  15.0092  15.0092  15.1429  15.1429

          k =-0.4750 0.4750 0.5500 (  3729 PWs)   bands (ev):

    -5.6325  -5.6325  -3.5130  -3.5130   3.8980   3.8980   4.4270   4.4270
     5.1132   5.1132   5.6478   5.6478   6.6494   6.6494   7.2062   7.2062
    13.7990  13.7990  14.5139  14.5139  15.0022  15.0022  15.1707  15.1707

          k =-0.4875 0.4875 0.5375 (  3727 PWs)   bands (ev):

    -5.6370  -5.6370  -3.5179  -3.5179   3.9476   3.9476   4.5270   4.5270
     5.1681   5.1681   5.5543   5.5543   6.5821   6.5821   7.1319   7.1319
    13.8763  13.8763  14.5441  14.5441  15.0270  15.0270  15.1472  15.1472

          k =-0.5000 0.5000 0.5250 (  3727 PWs)   bands (ev):

    -5.6412  -5.6412  -3.5188  -3.5188   3.9767   3.9767   4.5992   4.5992
     5.2025   5.2025   5.4891   5.4891   6.5398   6.5398   7.0872   7.0872
    13.9129  13.9129  14.5661  14.5661  15.0328  15.0328  15.1420  15.1420

          k =-0.5125 0.5125 0.5125 (  3729 PWs)   bands (ev):

    -5.6451  -5.6451  -3.5157  -3.5157   3.9851   3.9851   4.6256   4.6256
     5.2156   5.2156   5.4647   5.4647   6.5273   6.5273   7.0739   7.0739
    13.9058  13.9058  14.5812  14.5812  15.0183  15.0183  15.1445  15.1445

          k =-0.5250 0.5250 0.5000 (  3727 PWs)   bands (ev):

    -5.6486  -5.6486  -3.5086  -3.5086   3.9733   3.9733   4.5979   4.5979
     5.2020   5.2020   5.4923   5.4923   6.5465   6.5465   7.0921   7.0921
    13.8529  13.8529  14.5941  14.5941  14.9956  14.9956  15.1420  15.1420

          k =-0.4625 0.4875 0.5625 (  3726 PWs)   bands (ev):

    -5.6300  -5.6300  -3.5075  -3.5075   3.8553   3.8553   4.3600   4.3600
     5.0850   5.0850   5.7010   5.7010   6.6988   6.6988   7.2677   7.2677
    13.7427  13.7427  14.4755  14.4755  14.9619  14.9619  15.2162  15.2162

          k =-0.4750 0.5000 0.5500 (  3729 PWs)   bands (ev):

    -5.6365  -5.6365  -3.5119  -3.5119   3.9159   3.9159   4.4647   4.4647
     5.1401   5.1401   5.6080   5.6080   6.6243   6.6243   7.1793   7.1793
    13.8139  13.8139  14.5319  14.5319  14.9917  14.9917  15.1711  15.1711

          k =-0.4875 0.5125 0.5375 (  3727 PWs)   bands (ev):

    -5.6427  -5.6427  -3.5122  -3.5122   3.9554   3.9554   4.5493   4.5493
     5.1785   5.1785   5.5359   5.5359   6.5721   6.5721   7.1199   7.1199
    13.8511  13.8511  14.5727  14.5727  15.0092  15.0092  15.1429  15.1429

          k =-0.5000 0.5250 0.5250 (  3727 PWs)   bands (ev):

    -5.6486  -5.6486  -3.5086  -3.5086   3.9733   3.9733   4.5979   4.5979
     5.2020   5.2020   5.4923   5.4923   6.5465   6.5465   7.0921   7.0921
    13.8529  13.8529  14.5941  14.5941  14.9956  14.9956  15.1420  15.1420

          k =-0.5125 0.5375 0.5125 (  3729 PWs)   bands (ev):

    -5.6541  -5.6541  -3.5009  -3.5009   3.9699   3.9699   4.5973   4.5973
     5.2075   5.2075   5.4891   5.4891   6.5507   6.5507   7.0967   7.0967
    13.8158  13.8158  14.6007  14.6007  14.9659  14.9659  15.1510  15.1510

          k =-0.5250 0.4250 0.5250 (  3723 PWs)   bands (ev):

    -5.6295  -5.6295  -3.5016  -3.5016   3.8170   3.8170   4.3242   4.3242
     5.0638   5.0638   5.7371   5.7371   6.7280   6.7280   7.3187   7.3187
    13.7010  13.7010  14.4513  14.4513  14.8841  14.8841  15.2885  15.2885

          k =-0.5375 0.4375 0.5125 (  3726 PWs)   bands (ev):

    -5.6300  -5.6300  -3.5075  -3.5075   3.8553   3.8553   4.3600   4.3600
     5.0850   5.0850   5.7010   5.7010   6.6988   6.6988   7.2677   7.2677
    13.7427  13.7427  14.4755  14.4755  14.9619  14.9619  15.2162  15.2162

          k =-0.5500 0.4500 0.5000 (  3724 PWs)   bands (ev):

    -5.6301  -5.6301  -3.5095  -3.5095   3.8687   3.8687   4.3713   4.3713
     5.0936   5.0936   5.6873   5.6873   6.6898   6.6898   7.2499   7.2499
    13.7561  13.7561  14.4827  14.4827  15.0153  15.0153  15.1671  15.1671

          k =-0.5625 0.4625 0.4875 (  3726 PWs)   bands (ev):

    -5.6300  -5.6300  -3.5075  -3.5075   3.8553   3.8553   4.3600   4.3600
     5.0850   5.0850   5.7010   5.7010   6.6988   6.6988   7.2677   7.2677
    13.7427  13.7427  14.4755  14.4755  14.9619  14.9619  15.2162  15.2162

          k =-0.5750 0.4750 0.4750 (  3723 PWs)   bands (ev):

    -5.6295  -5.6295  -3.5016  -3.5016   3.8170   3.8170   4.3242   4.3242
     5.0638   5.0638   5.7371   5.7371   6.7280   6.7280   7.3187   7.3187
    13.7010  13.7010  14.4513  14.4513  14.8841  14.8841  15.2885  15.2885

          k =-0.5125 0.4375 0.5375 (  3726 PWs)   bands (ev):

    -5.6300  -5.6300  -3.5075  -3.5075   3.8553   3.8553   4.3600   4.3600
     5.0850   5.0850   5.7010   5.7010   6.6988   6.6988   7.2677   7.2677
    13.7427  13.7427  14.4755  14.4755  14.9619  14.9619  15.2162  15.2162

          k =-0.5250 0.4500 0.5250 (  3729 PWs)   bands (ev):

    -5.6325  -5.6325  -3.5130  -3.5130   3.8980   3.8980   4.4270   4.4270
     5.1132   5.1132   5.6478   5.6478   6.6494   6.6494   7.2062   7.2062
    13.7990  13.7990  14.5139  14.5139  15.0022  15.0022  15.1707  15.1707

          k =-0.5375 0.4625 0.5125 (  3727 PWs)   bands (ev):

    -5.6346  -5.6346  -3.5144  -3.5144   3.9188   3.9188   4.4630   4.4630
     5.1333   5.1333   5.6141   5.6141   6.6248   6.6248   7.1759   7.1759
    13.8228  13.8228  14.5317  14.5317  15.0339  15.0339  15.1372  15.1372

          k =-0.5500 0.4750 0.5000 (  3729 PWs)   bands (ev):

    -5.6365  -5.6365  -3.5119  -3.5119   3.9159   3.9159   4.4647   4.4647
     5.1401   5.1401   5.6080   5.6080   6.6243   6.6243   7.1793   7.1793
    13.8139  13.8139  14.5319  14.5319  14.9917  14.9917  15.1711  15.1711

          k =-0.5625 0.4875 0.4875 (  3727 PWs)   bands (ev):

    -5.6380  -5.6380  -3.5054  -3.5054   3.8899   3.8899   4.4322   4.4322
     5.1290   5.1290   5.6338   5.6338   6.6482   6.6482   7.2157   7.2157
    13.7700  13.7700  14.5192  14.5192  14.9272  14.9272  15.2230  15.2230

          k =-0.5000 0.4500 0.5500 (  3724 PWs)   bands (ev):

    -5.6301  -5.6301  -3.5095  -3.5095   3.8687   3.8687   4.3713   4.3713
     5.0936   5.0936   5.6873   5.6873   6.6898   6.6898   7.2499   7.2499
    13.7561  13.7561  14.4827  14.4827  15.0153  15.0153  15.1671  15.1671

          k =-0.5125 0.4625 0.5375 (  3727 PWs)   bands (ev):

    -5.6346  -5.6346  -3.5144  -3.5144   3.9188   3.9188   4.4630   4.4630
     5.1333   5.1333   5.6141   5.6141   6.6248   6.6248   7.1759   7.1759
    13.8228  13.8228  14.5317  14.5317  15.0339  15.0339  15.1372  15.1372

          k =-0.5250 0.4750 0.5250 (  3727 PWs)   bands (ev):

    -5.6388  -5.6388  -3.5153  -3.5153   3.9480   3.9480   4.5261   4.5261
     5.1614   5.1614   5.5612   5.5612   6.5848   6.5848   7.1317   7.1317
    13.8548  13.8548  14.5620  14.5620  15.0399  15.0399  15.1242  15.1242

          k =-0.5375 0.4875 0.5125 (  3727 PWs)   bands (ev):

    -5.6427  -5.6427  -3.5122  -3.5122   3.9554   3.9554   4.5493   4.5493
     5.1785   5.1785   5.5359   5.5359   6.5721   6.5721   7.1199   7.1199
    13.8511  13.8511  14.5727  14.5727  15.0092  15.0092  15.1429  15.1429

          k =-0.5500 0.5000 0.5000 (  3729 PWs)   bands (ev):

    -5.6462  -5.6462  -3.5052  -3.5052   3.9411   3.9411   4.5282   4.5282
     5.1771   5.1771   5.5485   5.5485   6.5875   6.5875   7.1406   7.1406
    13.8083  13.8083  14.5705  14.5705  14.9651  14.9651  15.1692  15.1692

          k =-0.4875 0.4625 0.5625 (  3726 PWs)   bands (ev):

    -5.6300  -5.6300  -3.5075  -3.5075   3.8553   3.8553   4.3600   4.3600
     5.0850   5.0850   5.7010   5.7010   6.6988   6.6988   7.2677   7.2677
    13.7427  13.7427  14.4755  14.4755  14.9619  14.9619  15.2162  15.2162

          k =-0.5000 0.4750 0.5500 (  3729 PWs)   bands (ev):

    -5.6365  -5.6365  -3.5119  -3.5119   3.9159   3.9159   4.4647   4.4647
     5.1401   5.1401   5.6080   5.6080   6.6243   6.6243   7.1793   7.1793
    13.8139  13.8139  14.5319  14.5319  14.9917  14.9917  15.1711  15.1711

          k =-0.5125 0.4875 0.5375 (  3727 PWs)   bands (ev):

    -5.6427  -5.6427  -3.5122  -3.5122   3.9554   3.9554   4.5493   4.5493
     5.1785   5.1785   5.5359   5.5359   6.5721   6.5721   7.1199   7.1199
    13.8511  13.8511  14.5727  14.5727  15.0092  15.0092  15.1429  15.1429

          k =-0.5250 0.5000 0.5250 (  3727 PWs)   bands (ev):

    -5.6486  -5.6486  -3.5086  -3.5086   3.9733   3.9733   4.5979   4.5979
     5.2020   5.2020   5.4923   5.4923   6.5465   6.5465   7.0921   7.0921
    13.8529  13.8529  14.5941  14.5941  14.9956  14.9956  15.1420  15.1420

          k =-0.5375 0.5125 0.5125 (  3729 PWs)   bands (ev):

    -5.6541  -5.6541  -3.5009  -3.5009   3.9699   3.9699   4.5973   4.5973
     5.2075   5.2075   5.4891   5.4891   6.5507   6.5507   7.0967   7.0967
    13.8158  13.8158  14.6007  14.6007  14.9659  14.9659  15.1510  15.1510

          k =-0.4750 0.4750 0.5750 (  3723 PWs)   bands (ev):

    -5.6295  -5.6295  -3.5016  -3.5016   3.8170   3.8170   4.3242   4.3242
     5.0638   5.0638   5.7371   5.7371   6.7280   6.7280   7.3187   7.3187
    13.7010  13.7010  14.4513  14.4513  14.8841  14.8841  15.2885  15.2885

          k =-0.4875 0.4875 0.5625 (  3727 PWs)   bands (ev):

    -5.6380  -5.6380  -3.5054  -3.5054   3.8899   3.8899   4.4322   4.4322
     5.1290   5.1290   5.6338   5.6338   6.6482   6.6482   7.2157   7.2157
    13.7700  13.7700  14.5192  14.5192  14.9272  14.9272  15.2230  15.2230

          k =-0.5000 0.5000 0.5500 (  3729 PWs)   bands (ev):

    -5.6462  -5.6462  -3.5052  -3.5052   3.9411   3.9411   4.5282   4.5282
     5.1771   5.1771   5.5485   5.5485   6.5875   6.5875   7.1406   7.1406
    13.8083  13.8083  14.5705  14.5705  14.9651  14.9651  15.1692  15.1692

          k =-0.5125 0.5125 0.5375 (  3729 PWs)   bands (ev):

    -5.6541  -5.6541  -3.5009  -3.5009   3.9699   3.9699   4.5973   4.5973
     5.2075   5.2075   5.4891   5.4891   6.5507   6.5507   7.0967   7.0967
    13.8158  13.8158  14.6007  14.6007  14.9659  14.9659  15.1510  15.1510

          k =-0.5250 0.5250 0.5250 (  3729 PWs)   bands (ev):

    -5.6616  -5.6616  -3.4928  -3.4928   3.9770   3.9770   4.6220   4.6220
     5.2207   5.2207   5.4664   5.4664   6.5421   6.5421   7.0855   7.0855
    13.7888  13.7888  14.6117  14.6117  14.9337  14.9337  15.1620  15.1620

     Writing output data file PbTe_rel.save
 
     init_run     :      0.13s CPU      0.15s WALL (       1 calls)
     electrons    :     28.91s CPU     30.66s WALL (       1 calls)

     Called by init_run:
     wfcinit      :      0.00s CPU      0.00s WALL (       1 calls)
     potinit      :      0.01s CPU      0.02s WALL (       1 calls)

     Called by electrons:
     c_bands      :     28.91s CPU     30.65s WALL (       1 calls)
     v_of_rho     :      0.00s CPU      0.00s WALL (       1 calls)
     v_h          :      0.00s CPU      0.00s WALL (       1 calls)
     v_xc         :      0.00s CPU      0.00s WALL (       1 calls)

     Called by c_bands:
     init_us_2    :      0.01s CPU      0.01s WALL (      32 calls)
     cegterg      :     27.28s CPU     28.83s WALL (      64 calls)

     Called by sum_band:

     Called by *egterg:
     h_psi        :     22.85s CPU     24.31s WALL (    1087 calls)
     g_psi        :      0.23s CPU      0.23s WALL (     991 calls)
     cdiaghg      :      1.56s CPU      1.69s WALL (    1023 calls)
     cegterg:over :      1.52s CPU      1.51s WALL (     991 calls)
     cegterg:upda :      1.25s CPU      1.26s WALL (     991 calls)
     cegterg:last :      0.66s CPU      0.67s WALL (     217 calls)

     Called by h_psi:
     h_psi:vloc   :     21.96s CPU     23.41s WALL (    1087 calls)
     h_psi:vnl    :      0.83s CPU      0.83s WALL (    1087 calls)
     add_vuspsi   :      0.37s CPU      0.37s WALL (    1087 calls)

     General routines
     calbec       :      0.46s CPU      0.46s WALL (    1087 calls)
     fft          :      0.01s CPU      0.01s WALL (       7 calls)
     fftw         :     20.46s CPU     21.87s WALL (   61864 calls)
     davcio       :      0.00s CPU      0.01s WALL (      64 calls)
 
     Parallel routines
     fft_scatter  :      2.23s CPU      3.58s WALL (   61871 calls)
 
     PWSCF        :    32.28s CPU        41.29s WALL

 
   This run was terminated on:  21:17:48   4Oct2016            

=------------------------------------------------------------------------------=
   JOB DONE.
=------------------------------------------------------------------------------=
