--------------------------------------------------------------------------
[[63880,1],5]: A high-performance Open MPI point-to-point messaging module
was unable to find any relevant network interfaces:

Module: OpenFabrics (openib)
  Host: compute-2-08

Another transport will be used instead, although this may result in
lower performance.
--------------------------------------------------------------------------

     Program PWSCF v.5.4.0 starts on  8May2017 at 13:36:48 

     This program is part of the open-source Quantum ESPRESSO suite
     for quantum simulation of materials; please cite
         "P. Giannozzi et al., J. Phys.:Condens. Matter 21 395502 (2009);
          URL http://www.quantum-espresso.org", 
     in publications or presentations arising from this work. More details at
     http://www.quantum-espresso.org/quote

     Parallel version (MPI), running on     8 processors
     K-points division:     npool     =       4
     R & G space division:  proc/nbgrp/npool/nimage =       2
     Waiting for input...
     Reading input from standard input

     Current dimensions of program PWSCF are:
     Max number of different atomic species (ntypx) = 10
     Max number of k-points (npk) =  40000
     Max angular momentum in pseudopotentials (lmaxx) =  3

     Atomic positions and unit cell read from directory:
     output/GaAs.save/
 
               file Ga.pw-mt_fhi.UPF: wavefunction(s)  4d 4f renormalized
               file As.pw-mt_fhi.UPF: wavefunction(s)  4f renormalized

     Subspace diagonalization in iterative solution of the eigenvalue problem:
     a serial algorithm will be used

 
     Parallelization info
     --------------------
     sticks:   dense  smooth     PW     G-vecs:    dense   smooth      PW
     Min         483     483    126                10089    10089    1318
     Max         484     484    127                10090    10090    1319
     Sum         967     967    253                20179    20179    2637
 


     bravais-lattice index     =            0
     lattice parameter (alat)  =      10.4582  a.u.
     unit-cell volume          =     285.9622 (a.u.)^3
     number of atoms/cell      =            2
     number of atomic types    =            2
     number of electrons       =         8.00
     number of Kohn-Sham states=           12
     kinetic-energy cutoff     =      65.0000  Ry
     charge density cutoff     =     260.0000  Ry
     Exchange-correlation      = SLA-PW ( 1  4  0  0 0 0)

     celldm(1)=  10.458182  celldm(2)=   0.000000  celldm(3)=   0.000000
     celldm(4)=   0.000000  celldm(5)=   0.000000  celldm(6)=   0.000000

     crystal axes: (cart. coord. in units of alat)
               a(1) = (  -0.500000   0.000000   0.500000 )  
               a(2) = (   0.000000   0.500000   0.500000 )  
               a(3) = (  -0.500000   0.500000   0.000000 )  

     reciprocal axes: (cart. coord. in units 2 pi/alat)
               b(1) = ( -1.000000 -1.000000  1.000000 )  
               b(2) = (  1.000000  1.000000  1.000000 )  
               b(3) = ( -1.000000  1.000000 -1.000000 )  


     PseudoPot. # 1 for Ga read from file:
     pseudo/Ga.pw-mt_fhi.UPF
     MD5 check sum: 0dbd34805b15f5fffb8ca3a6ec78f270
     Pseudo is Norm-conserving, Zval =  3.0
     Generated using FHI98PP, converted with fhi2upf.x v.5.0.1
     Using radial grid of  529 points,  3 beta functions with: 
                l(1) =   1
                l(2) =   2
                l(3) =   3

     PseudoPot. # 2 for As read from file:
     pseudo/As.pw-mt_fhi.UPF
     MD5 check sum: 7d16df958986224acfd209150af64008
     Pseudo is Norm-conserving, Zval =  5.0
     Generated using FHI98PP, converted with fhi2upf.x v.5.0.1
     Using radial grid of  531 points,  3 beta functions with: 
                l(1) =   0
                l(2) =   1
                l(3) =   3

     atomic species   valence    mass     pseudopotential
        Ga             3.00    69.72300     Ga( 1.00)
        As             5.00    74.92160     As( 1.00)

     24 Sym. Ops. (no inversion) found


                                    s                        frac. trans.

      isym =  1     identity                                     

 cryst.   s( 1) = (     1          0          0      )
                  (     0          1          0      )
                  (     0          0          1      )

 cart.    s( 1) = (  1.0000000  0.0000000  0.0000000 )
                  (  0.0000000  1.0000000  0.0000000 )
                  (  0.0000000  0.0000000  1.0000000 )


      isym =  2     180 deg rotation - cart. axis [0,0,1]        

 cryst.   s( 2) = (     0          1         -1      )
                  (     1          0         -1      )
                  (     0          0         -1      )

 cart.    s( 2) = ( -1.0000000  0.0000000  0.0000000 )
                  (  0.0000000 -1.0000000  0.0000000 )
                  (  0.0000000  0.0000000  1.0000000 )


      isym =  3     180 deg rotation - cart. axis [0,1,0]        

 cryst.   s( 3) = (    -1          0          0      )
                  (    -1          0          1      )
                  (    -1          1          0      )

 cart.    s( 3) = ( -1.0000000  0.0000000  0.0000000 )
                  (  0.0000000  1.0000000  0.0000000 )
                  (  0.0000000  0.0000000 -1.0000000 )


      isym =  4     180 deg rotation - cart. axis [1,0,0]        

 cryst.   s( 4) = (     0         -1          1      )
                  (     0         -1          0      )
                  (     1         -1          0      )

 cart.    s( 4) = (  1.0000000  0.0000000  0.0000000 )
                  (  0.0000000 -1.0000000  0.0000000 )
                  (  0.0000000  0.0000000 -1.0000000 )


      isym =  5     120 deg rotation - cart. axis [-1,-1,-1]     

 cryst.   s( 5) = (    -1          0          1      )
                  (    -1          1          0      )
                  (    -1          0          0      )

 cart.    s( 5) = (  0.0000000  1.0000000  0.0000000 )
                  (  0.0000000  0.0000000  1.0000000 )
                  (  1.0000000  0.0000000  0.0000000 )


      isym =  6     120 deg rotation - cart. axis [-1,1,1]       

 cryst.   s( 6) = (     0          1          0      )
                  (     0          0          1      )
                  (     1          0          0      )

 cart.    s( 6) = (  0.0000000 -1.0000000  0.0000000 )
                  (  0.0000000  0.0000000  1.0000000 )
                  ( -1.0000000  0.0000000  0.0000000 )


      isym =  7     120 deg rotation - cart. axis [1,1,-1]       

 cryst.   s( 7) = (     1          0         -1      )
                  (     0          0         -1      )
                  (     0          1         -1      )

 cart.    s( 7) = (  0.0000000  1.0000000  0.0000000 )
                  (  0.0000000  0.0000000 -1.0000000 )
                  ( -1.0000000  0.0000000  0.0000000 )


      isym =  8     120 deg rotation - cart. axis [1,-1,1]       

 cryst.   s( 8) = (     0         -1          0      )
                  (     1         -1          0      )
                  (     0         -1          1      )

 cart.    s( 8) = (  0.0000000 -1.0000000  0.0000000 )
                  (  0.0000000  0.0000000 -1.0000000 )
                  (  1.0000000  0.0000000  0.0000000 )


      isym =  9     120 deg rotation - cart. axis [1,1,1]        

 cryst.   s( 9) = (     0          0         -1      )
                  (     0          1         -1      )
                  (     1          0         -1      )

 cart.    s( 9) = (  0.0000000  0.0000000  1.0000000 )
                  (  1.0000000  0.0000000  0.0000000 )
                  (  0.0000000  1.0000000  0.0000000 )


      isym = 10     120 deg rotation - cart. axis [-1,1,-1]      

 cryst.   s(10) = (    -1          1          0      )
                  (    -1          0          0      )
                  (    -1          0          1      )

 cart.    s(10) = (  0.0000000  0.0000000  1.0000000 )
                  ( -1.0000000  0.0000000  0.0000000 )
                  (  0.0000000 -1.0000000  0.0000000 )


      isym = 11     120 deg rotation - cart. axis [1,-1,-1]      

 cryst.   s(11) = (     0          0          1      )
                  (     1          0          0      )
                  (     0          1          0      )

 cart.    s(11) = (  0.0000000  0.0000000 -1.0000000 )
                  ( -1.0000000  0.0000000  0.0000000 )
                  (  0.0000000  1.0000000  0.0000000 )


      isym = 12     120 deg rotation - cart. axis [-1,-1,1]      

 cryst.   s(12) = (     1         -1          0      )
                  (     0         -1          1      )
                  (     0         -1          0      )

 cart.    s(12) = (  0.0000000  0.0000000 -1.0000000 )
                  (  1.0000000  0.0000000  0.0000000 )
                  (  0.0000000 -1.0000000  0.0000000 )


      isym = 13     inv. 180 deg rotation - cart. axis [1,1,0]   

 cryst.   s(13) = (     0          1          0      )
                  (     1          0          0      )
                  (     0          0          1      )

 cart.    s(13) = (  0.0000000 -1.0000000  0.0000000 )
                  ( -1.0000000  0.0000000  0.0000000 )
                  (  0.0000000  0.0000000  1.0000000 )


      isym = 14     inv. 180 deg rotation - cart. axis [1,-1,0]  

 cryst.   s(14) = (     1          0         -1      )
                  (     0          1         -1      )
                  (     0          0         -1      )

 cart.    s(14) = (  0.0000000  1.0000000  0.0000000 )
                  (  1.0000000  0.0000000  0.0000000 )
                  (  0.0000000  0.0000000  1.0000000 )


      isym = 15     inv.  90 deg rotation - cart. axis [0,0,-1]  

 cryst.   s(15) = (     0         -1          0      )
                  (     0         -1          1      )
                  (     1         -1          0      )

 cart.    s(15) = (  0.0000000 -1.0000000  0.0000000 )
                  (  1.0000000  0.0000000  0.0000000 )
                  (  0.0000000  0.0000000 -1.0000000 )


      isym = 16     inv.  90 deg rotation - cart. axis [0,0,1]   

 cryst.   s(16) = (    -1          0          1      )
                  (    -1          0          0      )
                  (    -1          1          0      )

 cart.    s(16) = (  0.0000000  1.0000000  0.0000000 )
                  ( -1.0000000  0.0000000  0.0000000 )
                  (  0.0000000  0.0000000 -1.0000000 )


      isym = 17     inv. 180 deg rotation - cart. axis [1,0,1]   

 cryst.   s(17) = (     1          0          0      )
                  (     0          0          1      )
                  (     0          1          0      )

 cart.    s(17) = (  0.0000000  0.0000000 -1.0000000 )
                  (  0.0000000  1.0000000  0.0000000 )
                  ( -1.0000000  0.0000000  0.0000000 )


      isym = 18     inv. 180 deg rotation - cart. axis [-1,0,1]  

 cryst.   s(18) = (    -1          0          0      )
                  (    -1          1          0      )
                  (    -1          0          1      )

 cart.    s(18) = (  0.0000000  0.0000000  1.0000000 )
                  (  0.0000000  1.0000000  0.0000000 )
                  (  1.0000000  0.0000000  0.0000000 )


      isym = 19     inv.  90 deg rotation - cart. axis [0,1,0]   

 cryst.   s(19) = (     0         -1          1      )
                  (     1         -1          0      )
                  (     0         -1          0      )

 cart.    s(19) = (  0.0000000  0.0000000 -1.0000000 )
                  (  0.0000000 -1.0000000  0.0000000 )
                  (  1.0000000  0.0000000  0.0000000 )


      isym = 20     inv.  90 deg rotation - cart. axis [0,-1,0]  

 cryst.   s(20) = (     0          1         -1      )
                  (     0          0         -1      )
                  (     1          0         -1      )

 cart.    s(20) = (  0.0000000  0.0000000  1.0000000 )
                  (  0.0000000 -1.0000000  0.0000000 )
                  ( -1.0000000  0.0000000  0.0000000 )


      isym = 21     inv. 180 deg rotation - cart. axis [0,1,1]   

 cryst.   s(21) = (     1         -1          0      )
                  (     0         -1          0      )
                  (     0         -1          1      )

 cart.    s(21) = (  1.0000000  0.0000000  0.0000000 )
                  (  0.0000000  0.0000000 -1.0000000 )
                  (  0.0000000 -1.0000000  0.0000000 )


      isym = 22     inv. 180 deg rotation - cart. axis [0,1,-1]  

 cryst.   s(22) = (     0          0          1      )
                  (     0          1          0      )
                  (     1          0          0      )

 cart.    s(22) = (  1.0000000  0.0000000  0.0000000 )
                  (  0.0000000  0.0000000  1.0000000 )
                  (  0.0000000  1.0000000  0.0000000 )


      isym = 23     inv.  90 deg rotation - cart. axis [-1,0,0]  

 cryst.   s(23) = (     0          0         -1      )
                  (     1          0         -1      )
                  (     0          1         -1      )

 cart.    s(23) = ( -1.0000000  0.0000000  0.0000000 )
                  (  0.0000000  0.0000000 -1.0000000 )
                  (  0.0000000  1.0000000  0.0000000 )


      isym = 24     inv.  90 deg rotation - cart. axis [1,0,0]   

 cryst.   s(24) = (    -1          1          0      )
                  (    -1          0          1      )
                  (    -1          0          0      )

 cart.    s(24) = ( -1.0000000  0.0000000  0.0000000 )
                  (  0.0000000  0.0000000  1.0000000 )
                  (  0.0000000 -1.0000000  0.0000000 )


   Cartesian axes

     site n.     atom                  positions (alat units)
         1           Ga  tau(   1) = (   0.0000000   0.0000000   0.0000000  )
         2           As  tau(   2) = (  -0.2500000   0.2500000   0.2500000  )

   Crystallographic axes

     site n.     atom                  positions (cryst. coord.)
         1           Ga  tau(   1) = (  0.0000000  0.0000000  0.0000000  )
         2           As  tau(   2) = (  0.2500000  0.2500000  0.2500000  )

     number of k points=   125
                       cart. coord. in units 2pi/alat
        k(    1) = (   0.0050000  -0.0050000  -0.0050000), wk =   0.0160000
        k(    2) = (   0.0025000  -0.0025000  -0.0075000), wk =   0.0160000
        k(    3) = (   0.0000000   0.0000000  -0.0100000), wk =   0.0160000
        k(    4) = (  -0.0025000   0.0025000  -0.0125000), wk =   0.0160000
        k(    5) = (  -0.0050000   0.0050000  -0.0150000), wk =   0.0160000
        k(    6) = (   0.0075000  -0.0025000  -0.0025000), wk =   0.0160000
        k(    7) = (   0.0050000   0.0000000  -0.0050000), wk =   0.0160000
        k(    8) = (   0.0025000   0.0025000  -0.0075000), wk =   0.0160000
        k(    9) = (   0.0000000   0.0050000  -0.0100000), wk =   0.0160000
        k(   10) = (  -0.0025000   0.0075000  -0.0125000), wk =   0.0160000
        k(   11) = (   0.0100000   0.0000000   0.0000000), wk =   0.0160000
        k(   12) = (   0.0075000   0.0025000  -0.0025000), wk =   0.0160000
        k(   13) = (   0.0050000   0.0050000  -0.0050000), wk =   0.0160000
        k(   14) = (   0.0025000   0.0075000  -0.0075000), wk =   0.0160000
        k(   15) = (   0.0000000   0.0100000  -0.0100000), wk =   0.0160000
        k(   16) = (   0.0125000   0.0025000   0.0025000), wk =   0.0160000
        k(   17) = (   0.0100000   0.0050000   0.0000000), wk =   0.0160000
        k(   18) = (   0.0075000   0.0075000  -0.0025000), wk =   0.0160000
        k(   19) = (   0.0050000   0.0100000  -0.0050000), wk =   0.0160000
        k(   20) = (   0.0025000   0.0125000  -0.0075000), wk =   0.0160000
        k(   21) = (   0.0150000   0.0050000   0.0050000), wk =   0.0160000
        k(   22) = (   0.0125000   0.0075000   0.0025000), wk =   0.0160000
        k(   23) = (   0.0100000   0.0100000   0.0000000), wk =   0.0160000
        k(   24) = (   0.0075000   0.0125000  -0.0025000), wk =   0.0160000
        k(   25) = (   0.0050000   0.0150000  -0.0050000), wk =   0.0160000
        k(   26) = (   0.0025000  -0.0075000  -0.0025000), wk =   0.0160000
        k(   27) = (   0.0000000  -0.0050000  -0.0050000), wk =   0.0160000
        k(   28) = (  -0.0025000  -0.0025000  -0.0075000), wk =   0.0160000
        k(   29) = (  -0.0050000   0.0000000  -0.0100000), wk =   0.0160000
        k(   30) = (  -0.0075000   0.0025000  -0.0125000), wk =   0.0160000
        k(   31) = (   0.0050000  -0.0050000   0.0000000), wk =   0.0160000
        k(   32) = (   0.0025000  -0.0025000  -0.0025000), wk =   0.0160000
        k(   33) = (   0.0000000   0.0000000  -0.0050000), wk =   0.0160000
        k(   34) = (  -0.0025000   0.0025000  -0.0075000), wk =   0.0160000
        k(   35) = (  -0.0050000   0.0050000  -0.0100000), wk =   0.0160000
        k(   36) = (   0.0075000  -0.0025000   0.0025000), wk =   0.0160000
        k(   37) = (   0.0050000   0.0000000   0.0000000), wk =   0.0160000
        k(   38) = (   0.0025000   0.0025000  -0.0025000), wk =   0.0160000
        k(   39) = (   0.0000000   0.0050000  -0.0050000), wk =   0.0160000
        k(   40) = (  -0.0025000   0.0075000  -0.0075000), wk =   0.0160000
        k(   41) = (   0.0100000   0.0000000   0.0050000), wk =   0.0160000
        k(   42) = (   0.0075000   0.0025000   0.0025000), wk =   0.0160000
        k(   43) = (   0.0050000   0.0050000   0.0000000), wk =   0.0160000
        k(   44) = (   0.0025000   0.0075000  -0.0025000), wk =   0.0160000
        k(   45) = (   0.0000000   0.0100000  -0.0050000), wk =   0.0160000
        k(   46) = (   0.0125000   0.0025000   0.0075000), wk =   0.0160000
        k(   47) = (   0.0100000   0.0050000   0.0050000), wk =   0.0160000
        k(   48) = (   0.0075000   0.0075000   0.0025000), wk =   0.0160000
        k(   49) = (   0.0050000   0.0100000   0.0000000), wk =   0.0160000
        k(   50) = (   0.0025000   0.0125000  -0.0025000), wk =   0.0160000
        k(   51) = (   0.0000000  -0.0100000   0.0000000), wk =   0.0160000
        k(   52) = (  -0.0025000  -0.0075000  -0.0025000), wk =   0.0160000
        k(   53) = (  -0.0050000  -0.0050000  -0.0050000), wk =   0.0160000
        k(   54) = (  -0.0075000  -0.0025000  -0.0075000), wk =   0.0160000
        k(   55) = (  -0.0100000   0.0000000  -0.0100000), wk =   0.0160000
        k(   56) = (   0.0025000  -0.0075000   0.0025000), wk =   0.0160000
        k(   57) = (   0.0000000  -0.0050000   0.0000000), wk =   0.0160000
        k(   58) = (  -0.0025000  -0.0025000  -0.0025000), wk =   0.0160000
        k(   59) = (  -0.0050000   0.0000000  -0.0050000), wk =   0.0160000
        k(   60) = (  -0.0075000   0.0025000  -0.0075000), wk =   0.0160000
        k(   61) = (   0.0050000  -0.0050000   0.0050000), wk =   0.0160000
        k(   62) = (   0.0025000  -0.0025000   0.0025000), wk =   0.0160000
        k(   63) = (   0.0000000   0.0000000   0.0000000), wk =   0.0160000
        k(   64) = (  -0.0025000   0.0025000  -0.0025000), wk =   0.0160000
        k(   65) = (  -0.0050000   0.0050000  -0.0050000), wk =   0.0160000
        k(   66) = (   0.0075000  -0.0025000   0.0075000), wk =   0.0160000
        k(   67) = (   0.0050000   0.0000000   0.0050000), wk =   0.0160000
        k(   68) = (   0.0025000   0.0025000   0.0025000), wk =   0.0160000
        k(   69) = (   0.0000000   0.0050000   0.0000000), wk =   0.0160000
        k(   70) = (  -0.0025000   0.0075000  -0.0025000), wk =   0.0160000
        k(   71) = (   0.0100000   0.0000000   0.0100000), wk =   0.0160000
        k(   72) = (   0.0075000   0.0025000   0.0075000), wk =   0.0160000
        k(   73) = (   0.0050000   0.0050000   0.0050000), wk =   0.0160000
        k(   74) = (   0.0025000   0.0075000   0.0025000), wk =   0.0160000
        k(   75) = (   0.0000000   0.0100000   0.0000000), wk =   0.0160000
        k(   76) = (  -0.0025000  -0.0125000   0.0025000), wk =   0.0160000
        k(   77) = (  -0.0050000  -0.0100000   0.0000000), wk =   0.0160000
        k(   78) = (  -0.0075000  -0.0075000  -0.0025000), wk =   0.0160000
        k(   79) = (  -0.0100000  -0.0050000  -0.0050000), wk =   0.0160000
        k(   80) = (  -0.0125000  -0.0025000  -0.0075000), wk =   0.0160000
        k(   81) = (   0.0000000  -0.0100000   0.0050000), wk =   0.0160000
        k(   82) = (  -0.0025000  -0.0075000   0.0025000), wk =   0.0160000
        k(   83) = (  -0.0050000  -0.0050000   0.0000000), wk =   0.0160000
        k(   84) = (  -0.0075000  -0.0025000  -0.0025000), wk =   0.0160000
        k(   85) = (  -0.0100000   0.0000000  -0.0050000), wk =   0.0160000
        k(   86) = (   0.0025000  -0.0075000   0.0075000), wk =   0.0160000
        k(   87) = (   0.0000000  -0.0050000   0.0050000), wk =   0.0160000
        k(   88) = (  -0.0025000  -0.0025000   0.0025000), wk =   0.0160000
        k(   89) = (  -0.0050000   0.0000000   0.0000000), wk =   0.0160000
        k(   90) = (  -0.0075000   0.0025000  -0.0025000), wk =   0.0160000
        k(   91) = (   0.0050000  -0.0050000   0.0100000), wk =   0.0160000
        k(   92) = (   0.0025000  -0.0025000   0.0075000), wk =   0.0160000
        k(   93) = (   0.0000000   0.0000000   0.0050000), wk =   0.0160000
        k(   94) = (  -0.0025000   0.0025000   0.0025000), wk =   0.0160000
        k(   95) = (  -0.0050000   0.0050000   0.0000000), wk =   0.0160000
        k(   96) = (   0.0075000  -0.0025000   0.0125000), wk =   0.0160000
        k(   97) = (   0.0050000   0.0000000   0.0100000), wk =   0.0160000
        k(   98) = (   0.0025000   0.0025000   0.0075000), wk =   0.0160000
        k(   99) = (   0.0000000   0.0050000   0.0050000), wk =   0.0160000
        k(  100) = (  -0.0025000   0.0075000   0.0025000), wk =   0.0160000
        k(  101) = (  -0.0050000  -0.0150000   0.0050000), wk =   0.0160000
        k(  102) = (  -0.0075000  -0.0125000   0.0025000), wk =   0.0160000
        k(  103) = (  -0.0100000  -0.0100000   0.0000000), wk =   0.0160000
        k(  104) = (  -0.0125000  -0.0075000  -0.0025000), wk =   0.0160000
        k(  105) = (  -0.0150000  -0.0050000  -0.0050000), wk =   0.0160000
        k(  106) = (  -0.0025000  -0.0125000   0.0075000), wk =   0.0160000
        k(  107) = (  -0.0050000  -0.0100000   0.0050000), wk =   0.0160000
        k(  108) = (  -0.0075000  -0.0075000   0.0025000), wk =   0.0160000
        k(  109) = (  -0.0100000  -0.0050000   0.0000000), wk =   0.0160000
        k(  110) = (  -0.0125000  -0.0025000  -0.0025000), wk =   0.0160000
        k(  111) = (   0.0000000  -0.0100000   0.0100000), wk =   0.0160000
        k(  112) = (  -0.0025000  -0.0075000   0.0075000), wk =   0.0160000
        k(  113) = (  -0.0050000  -0.0050000   0.0050000), wk =   0.0160000
        k(  114) = (  -0.0075000  -0.0025000   0.0025000), wk =   0.0160000
        k(  115) = (  -0.0100000   0.0000000   0.0000000), wk =   0.0160000
        k(  116) = (   0.0025000  -0.0075000   0.0125000), wk =   0.0160000
        k(  117) = (   0.0000000  -0.0050000   0.0100000), wk =   0.0160000
        k(  118) = (  -0.0025000  -0.0025000   0.0075000), wk =   0.0160000
        k(  119) = (  -0.0050000   0.0000000   0.0050000), wk =   0.0160000
        k(  120) = (  -0.0075000   0.0025000   0.0025000), wk =   0.0160000
        k(  121) = (   0.0050000  -0.0050000   0.0150000), wk =   0.0160000
        k(  122) = (   0.0025000  -0.0025000   0.0125000), wk =   0.0160000
        k(  123) = (   0.0000000   0.0000000   0.0100000), wk =   0.0160000
        k(  124) = (  -0.0025000   0.0025000   0.0075000), wk =   0.0160000
        k(  125) = (  -0.0050000   0.0050000   0.0050000), wk =   0.0160000

                       cryst. coord.
        k(    1) = (  -0.0050000  -0.0050000  -0.0050000), wk =   0.0160000
        k(    2) = (  -0.0050000  -0.0050000  -0.0025000), wk =   0.0160000
        k(    3) = (  -0.0050000  -0.0050000   0.0000000), wk =   0.0160000
        k(    4) = (  -0.0050000  -0.0050000   0.0025000), wk =   0.0160000
        k(    5) = (  -0.0050000  -0.0050000   0.0050000), wk =   0.0160000
        k(    6) = (  -0.0050000  -0.0025000  -0.0050000), wk =   0.0160000
        k(    7) = (  -0.0050000  -0.0025000  -0.0025000), wk =   0.0160000
        k(    8) = (  -0.0050000  -0.0025000   0.0000000), wk =   0.0160000
        k(    9) = (  -0.0050000  -0.0025000   0.0025000), wk =   0.0160000
        k(   10) = (  -0.0050000  -0.0025000   0.0050000), wk =   0.0160000
        k(   11) = (  -0.0050000   0.0000000  -0.0050000), wk =   0.0160000
        k(   12) = (  -0.0050000   0.0000000  -0.0025000), wk =   0.0160000
        k(   13) = (  -0.0050000   0.0000000   0.0000000), wk =   0.0160000
        k(   14) = (  -0.0050000   0.0000000   0.0025000), wk =   0.0160000
        k(   15) = (  -0.0050000   0.0000000   0.0050000), wk =   0.0160000
        k(   16) = (  -0.0050000   0.0025000  -0.0050000), wk =   0.0160000
        k(   17) = (  -0.0050000   0.0025000  -0.0025000), wk =   0.0160000
        k(   18) = (  -0.0050000   0.0025000   0.0000000), wk =   0.0160000
        k(   19) = (  -0.0050000   0.0025000   0.0025000), wk =   0.0160000
        k(   20) = (  -0.0050000   0.0025000   0.0050000), wk =   0.0160000
        k(   21) = (  -0.0050000   0.0050000  -0.0050000), wk =   0.0160000
        k(   22) = (  -0.0050000   0.0050000  -0.0025000), wk =   0.0160000
        k(   23) = (  -0.0050000   0.0050000   0.0000000), wk =   0.0160000
        k(   24) = (  -0.0050000   0.0050000   0.0025000), wk =   0.0160000
        k(   25) = (  -0.0050000   0.0050000   0.0050000), wk =   0.0160000
        k(   26) = (  -0.0025000  -0.0050000  -0.0050000), wk =   0.0160000
        k(   27) = (  -0.0025000  -0.0050000  -0.0025000), wk =   0.0160000
        k(   28) = (  -0.0025000  -0.0050000   0.0000000), wk =   0.0160000
        k(   29) = (  -0.0025000  -0.0050000   0.0025000), wk =   0.0160000
        k(   30) = (  -0.0025000  -0.0050000   0.0050000), wk =   0.0160000
        k(   31) = (  -0.0025000  -0.0025000  -0.0050000), wk =   0.0160000
        k(   32) = (  -0.0025000  -0.0025000  -0.0025000), wk =   0.0160000
        k(   33) = (  -0.0025000  -0.0025000   0.0000000), wk =   0.0160000
        k(   34) = (  -0.0025000  -0.0025000   0.0025000), wk =   0.0160000
        k(   35) = (  -0.0025000  -0.0025000   0.0050000), wk =   0.0160000
        k(   36) = (  -0.0025000   0.0000000  -0.0050000), wk =   0.0160000
        k(   37) = (  -0.0025000   0.0000000  -0.0025000), wk =   0.0160000
        k(   38) = (  -0.0025000   0.0000000   0.0000000), wk =   0.0160000
        k(   39) = (  -0.0025000   0.0000000   0.0025000), wk =   0.0160000
        k(   40) = (  -0.0025000   0.0000000   0.0050000), wk =   0.0160000
        k(   41) = (  -0.0025000   0.0025000  -0.0050000), wk =   0.0160000
        k(   42) = (  -0.0025000   0.0025000  -0.0025000), wk =   0.0160000
        k(   43) = (  -0.0025000   0.0025000   0.0000000), wk =   0.0160000
        k(   44) = (  -0.0025000   0.0025000   0.0025000), wk =   0.0160000
        k(   45) = (  -0.0025000   0.0025000   0.0050000), wk =   0.0160000
        k(   46) = (  -0.0025000   0.0050000  -0.0050000), wk =   0.0160000
        k(   47) = (  -0.0025000   0.0050000  -0.0025000), wk =   0.0160000
        k(   48) = (  -0.0025000   0.0050000   0.0000000), wk =   0.0160000
        k(   49) = (  -0.0025000   0.0050000   0.0025000), wk =   0.0160000
        k(   50) = (  -0.0025000   0.0050000   0.0050000), wk =   0.0160000
        k(   51) = (   0.0000000  -0.0050000  -0.0050000), wk =   0.0160000
        k(   52) = (   0.0000000  -0.0050000  -0.0025000), wk =   0.0160000
        k(   53) = (   0.0000000  -0.0050000   0.0000000), wk =   0.0160000
        k(   54) = (   0.0000000  -0.0050000   0.0025000), wk =   0.0160000
        k(   55) = (   0.0000000  -0.0050000   0.0050000), wk =   0.0160000
        k(   56) = (   0.0000000  -0.0025000  -0.0050000), wk =   0.0160000
        k(   57) = (   0.0000000  -0.0025000  -0.0025000), wk =   0.0160000
        k(   58) = (   0.0000000  -0.0025000   0.0000000), wk =   0.0160000
        k(   59) = (   0.0000000  -0.0025000   0.0025000), wk =   0.0160000
        k(   60) = (   0.0000000  -0.0025000   0.0050000), wk =   0.0160000
        k(   61) = (   0.0000000   0.0000000  -0.0050000), wk =   0.0160000
        k(   62) = (   0.0000000   0.0000000  -0.0025000), wk =   0.0160000
        k(   63) = (   0.0000000   0.0000000   0.0000000), wk =   0.0160000
        k(   64) = (   0.0000000   0.0000000   0.0025000), wk =   0.0160000
        k(   65) = (   0.0000000   0.0000000   0.0050000), wk =   0.0160000
        k(   66) = (   0.0000000   0.0025000  -0.0050000), wk =   0.0160000
        k(   67) = (   0.0000000   0.0025000  -0.0025000), wk =   0.0160000
        k(   68) = (   0.0000000   0.0025000   0.0000000), wk =   0.0160000
        k(   69) = (   0.0000000   0.0025000   0.0025000), wk =   0.0160000
        k(   70) = (   0.0000000   0.0025000   0.0050000), wk =   0.0160000
        k(   71) = (   0.0000000   0.0050000  -0.0050000), wk =   0.0160000
        k(   72) = (   0.0000000   0.0050000  -0.0025000), wk =   0.0160000
        k(   73) = (   0.0000000   0.0050000   0.0000000), wk =   0.0160000
        k(   74) = (   0.0000000   0.0050000   0.0025000), wk =   0.0160000
        k(   75) = (   0.0000000   0.0050000   0.0050000), wk =   0.0160000
        k(   76) = (   0.0025000  -0.0050000  -0.0050000), wk =   0.0160000
        k(   77) = (   0.0025000  -0.0050000  -0.0025000), wk =   0.0160000
        k(   78) = (   0.0025000  -0.0050000   0.0000000), wk =   0.0160000
        k(   79) = (   0.0025000  -0.0050000   0.0025000), wk =   0.0160000
        k(   80) = (   0.0025000  -0.0050000   0.0050000), wk =   0.0160000
        k(   81) = (   0.0025000  -0.0025000  -0.0050000), wk =   0.0160000
        k(   82) = (   0.0025000  -0.0025000  -0.0025000), wk =   0.0160000
        k(   83) = (   0.0025000  -0.0025000   0.0000000), wk =   0.0160000
        k(   84) = (   0.0025000  -0.0025000   0.0025000), wk =   0.0160000
        k(   85) = (   0.0025000  -0.0025000   0.0050000), wk =   0.0160000
        k(   86) = (   0.0025000   0.0000000  -0.0050000), wk =   0.0160000
        k(   87) = (   0.0025000   0.0000000  -0.0025000), wk =   0.0160000
        k(   88) = (   0.0025000   0.0000000   0.0000000), wk =   0.0160000
        k(   89) = (   0.0025000   0.0000000   0.0025000), wk =   0.0160000
        k(   90) = (   0.0025000   0.0000000   0.0050000), wk =   0.0160000
        k(   91) = (   0.0025000   0.0025000  -0.0050000), wk =   0.0160000
        k(   92) = (   0.0025000   0.0025000  -0.0025000), wk =   0.0160000
        k(   93) = (   0.0025000   0.0025000   0.0000000), wk =   0.0160000
        k(   94) = (   0.0025000   0.0025000   0.0025000), wk =   0.0160000
        k(   95) = (   0.0025000   0.0025000   0.0050000), wk =   0.0160000
        k(   96) = (   0.0025000   0.0050000  -0.0050000), wk =   0.0160000
        k(   97) = (   0.0025000   0.0050000  -0.0025000), wk =   0.0160000
        k(   98) = (   0.0025000   0.0050000   0.0000000), wk =   0.0160000
        k(   99) = (   0.0025000   0.0050000   0.0025000), wk =   0.0160000
        k(  100) = (   0.0025000   0.0050000   0.0050000), wk =   0.0160000
        k(  101) = (   0.0050000  -0.0050000  -0.0050000), wk =   0.0160000
        k(  102) = (   0.0050000  -0.0050000  -0.0025000), wk =   0.0160000
        k(  103) = (   0.0050000  -0.0050000   0.0000000), wk =   0.0160000
        k(  104) = (   0.0050000  -0.0050000   0.0025000), wk =   0.0160000
        k(  105) = (   0.0050000  -0.0050000   0.0050000), wk =   0.0160000
        k(  106) = (   0.0050000  -0.0025000  -0.0050000), wk =   0.0160000
        k(  107) = (   0.0050000  -0.0025000  -0.0025000), wk =   0.0160000
        k(  108) = (   0.0050000  -0.0025000   0.0000000), wk =   0.0160000
        k(  109) = (   0.0050000  -0.0025000   0.0025000), wk =   0.0160000
        k(  110) = (   0.0050000  -0.0025000   0.0050000), wk =   0.0160000
        k(  111) = (   0.0050000   0.0000000  -0.0050000), wk =   0.0160000
        k(  112) = (   0.0050000   0.0000000  -0.0025000), wk =   0.0160000
        k(  113) = (   0.0050000   0.0000000   0.0000000), wk =   0.0160000
        k(  114) = (   0.0050000   0.0000000   0.0025000), wk =   0.0160000
        k(  115) = (   0.0050000   0.0000000   0.0050000), wk =   0.0160000
        k(  116) = (   0.0050000   0.0025000  -0.0050000), wk =   0.0160000
        k(  117) = (   0.0050000   0.0025000  -0.0025000), wk =   0.0160000
        k(  118) = (   0.0050000   0.0025000   0.0000000), wk =   0.0160000
        k(  119) = (   0.0050000   0.0025000   0.0025000), wk =   0.0160000
        k(  120) = (   0.0050000   0.0025000   0.0050000), wk =   0.0160000
        k(  121) = (   0.0050000   0.0050000  -0.0050000), wk =   0.0160000
        k(  122) = (   0.0050000   0.0050000  -0.0025000), wk =   0.0160000
        k(  123) = (   0.0050000   0.0050000   0.0000000), wk =   0.0160000
        k(  124) = (   0.0050000   0.0050000   0.0025000), wk =   0.0160000
        k(  125) = (   0.0050000   0.0050000   0.0050000), wk =   0.0160000

     Dense  grid:    20179 G-vectors     FFT dimensions: (  40,  40,  40)

     Largest allocated arrays     est. size (Mb)     dimensions
        Kohn-Sham Wavefunctions         0.24 Mb     (    1319,   12)
        NL pseudopotentials             0.52 Mb     (    1319,   26)
        Each V/rho on FFT grid          0.49 Mb     (   32000)
        Each G-vector array             0.08 Mb     (   10090)
        G-vector shells                 0.00 Mb     (     243)
     Largest temporary arrays     est. size (Mb)     dimensions
        Each subspace H/S matrix        0.00 Mb     (      12,   12)
        Each <psi_i|beta_j> matrix      0.00 Mb     (      26,   12)

     The potential is recalculated from file :
     output/GaAs.save/charge-density.dat

     Starting wfc are   32 randomized atomic wfcs

     Band Structure Calculation
     CG style diagonalization

     Computing kpt #:     1
     c_bands:  1 eigenvalues not converged
     total cpu time spent up to now is        2.8 secs

     Computing kpt #:     2
     c_bands:  1 eigenvalues not converged
     total cpu time spent up to now is        4.4 secs

     Computing kpt #:     3
     c_bands:  1 eigenvalues not converged
     total cpu time spent up to now is        6.0 secs

     Computing kpt #:     4
     c_bands:  1 eigenvalues not converged
     total cpu time spent up to now is        7.7 secs

     Computing kpt #:     5
     c_bands:  1 eigenvalues not converged
     total cpu time spent up to now is        9.3 secs

     Computing kpt #:     6
     c_bands:  1 eigenvalues not converged
     total cpu time spent up to now is       11.0 secs

     Computing kpt #:     7
     c_bands:  1 eigenvalues not converged
     total cpu time spent up to now is       12.6 secs

     Computing kpt #:     8
     c_bands:  1 eigenvalues not converged
     total cpu time spent up to now is       14.2 secs

     Computing kpt #:     9
     c_bands:  1 eigenvalues not converged
     total cpu time spent up to now is       15.9 secs

     Computing kpt #:    10
     c_bands:  1 eigenvalues not converged
     total cpu time spent up to now is       17.5 secs

     Computing kpt #:    11
     c_bands:  1 eigenvalues not converged
     total cpu time spent up to now is       19.2 secs

     Computing kpt #:    12
     c_bands:  1 eigenvalues not converged
     total cpu time spent up to now is       20.8 secs

     Computing kpt #:    13
     c_bands:  1 eigenvalues not converged
     total cpu time spent up to now is       22.5 secs

     Computing kpt #:    14
     c_bands:  1 eigenvalues not converged
     total cpu time spent up to now is       24.1 secs

     Computing kpt #:    15
     c_bands:  1 eigenvalues not converged
     total cpu time spent up to now is       25.7 secs

     Computing kpt #:    16
     c_bands:  1 eigenvalues not converged
     total cpu time spent up to now is       27.4 secs

     Computing kpt #:    17
     c_bands:  1 eigenvalues not converged
     total cpu time spent up to now is       29.0 secs

     Computing kpt #:    18
     c_bands:  1 eigenvalues not converged
     total cpu time spent up to now is       30.7 secs

     Computing kpt #:    19
     c_bands:  1 eigenvalues not converged
     total cpu time spent up to now is       32.5 secs

     Computing kpt #:    20
     c_bands:  1 eigenvalues not converged
     total cpu time spent up to now is       34.1 secs

     Computing kpt #:    21
     c_bands:  1 eigenvalues not converged
     total cpu time spent up to now is       35.7 secs

     Computing kpt #:    22
     c_bands:  1 eigenvalues not converged
     total cpu time spent up to now is       37.5 secs

     Computing kpt #:    23
     c_bands:  1 eigenvalues not converged
     total cpu time spent up to now is       39.2 secs

     Computing kpt #:    24
     c_bands:  1 eigenvalues not converged
     total cpu time spent up to now is       40.8 secs

     Computing kpt #:    25
     c_bands:  1 eigenvalues not converged
     total cpu time spent up to now is       42.4 secs

     Computing kpt #:    26
     c_bands:  1 eigenvalues not converged
     total cpu time spent up to now is       44.1 secs

     Computing kpt #:    27
     c_bands:  1 eigenvalues not converged
     total cpu time spent up to now is       45.7 secs

     Computing kpt #:    28
     c_bands:  1 eigenvalues not converged
     total cpu time spent up to now is       47.4 secs

     Computing kpt #:    29
     c_bands:  1 eigenvalues not converged
     total cpu time spent up to now is       49.0 secs

     Computing kpt #:    30
     c_bands:  1 eigenvalues not converged
     total cpu time spent up to now is       50.7 secs

     Computing kpt #:    31
     c_bands:  1 eigenvalues not converged
     total cpu time spent up to now is       52.3 secs

     Computing kpt #:    32
     c_bands:  1 eigenvalues not converged
     total cpu time spent up to now is       53.7 secs

     ethr =  1.25E-14,  avg # of iterations = 67.2

     total cpu time spent up to now is       53.7 secs

     End of band structure calculation

          k = 0.0050-0.0050-0.0050 (  2619 PWs)   bands (ev):

    -7.8583   5.3025   5.3103   5.3103   6.3253   9.0956   9.0960   9.0960
    12.9313  15.7538  15.7538  17.0138

     occupation numbers 
     1.0000   1.0000   1.0000   1.0000   0.0000   0.0000   0.0000   0.0000
     0.0000   0.0000   0.0000   0.0000

          k = 0.0025-0.0025-0.0075 (  2613 PWs)   bands (ev):

    -7.8583   5.3038   5.3099   5.3101   6.3247   9.0945   9.0964   9.0964
    12.9311  15.7512  15.7571  17.0154

     occupation numbers 
     1.0000   1.0000   1.0000   1.0000   0.0000   0.0000   0.0000   0.0000
     0.0000   0.0000   0.0000   0.0000

          k = 0.0000 0.0000-0.0100 (  2613 PWs)   bands (ev):

    -7.8582   5.3015   5.3092   5.3092   6.3276   9.0935   9.0973   9.0973
    12.9319  15.7466  15.7583  17.0168

     occupation numbers 
     1.0000   1.0000   1.0000   1.0000   0.0000   0.0000   0.0000   0.0000
     0.0000   0.0000   0.0000   0.0000

          k =-0.0025 0.0025-0.0125 (  2605 PWs)   bands (ev):

    -7.8579   5.2946   5.3083   5.3087   6.3338   9.0928   9.0984   9.0985
    12.9338  15.7400  15.7575  17.0161

     occupation numbers 
     1.0000   1.0000   1.0000   1.0000   0.0000   0.0000   0.0000   0.0000
     0.0000   0.0000   0.0000   0.0000

          k =-0.0050 0.0050-0.0150 (  2607 PWs)   bands (ev):

    -7.8575   5.2834   5.3072   5.3083   6.3432   9.0924   9.0999   9.1000
    12.9366  15.7316  15.7547  17.0136

     occupation numbers 
     1.0000   1.0000   1.0000   1.0000   0.0000   0.0000   0.0000   0.0000
     0.0000   0.0000   0.0000   0.0000

          k = 0.0075-0.0025-0.0025 (  2613 PWs)   bands (ev):

    -7.8583   5.3038   5.3099   5.3101   6.3247   9.0945   9.0964   9.0964
    12.9311  15.7512  15.7571  17.0153

     occupation numbers 
     1.0000   1.0000   1.0000   1.0000   0.0000   0.0000   0.0000   0.0000
     0.0000   0.0000   0.0000   0.0000

          k = 0.0050 0.0000-0.0050 (  2619 PWs)   bands (ev):

    -7.8584   5.3054   5.3100   5.3106   6.3230   9.0952   9.0954   9.0963
    12.9306  15.7537  15.7566  17.0161

     occupation numbers 
     1.0000   1.0000   1.0000   1.0000   0.0000   0.0000   0.0000   0.0000
     0.0000   0.0000   0.0000   0.0000

          k = 0.0025 0.0025-0.0075 (  2613 PWs)   bands (ev):

    -7.8583   5.3038   5.3099   5.3101   6.3247   9.0945   9.0964   9.0964
    12.9311  15.7512  15.7571  17.0160

     occupation numbers 
     1.0000   1.0000   1.0000   1.0000   0.0000   0.0000   0.0000   0.0000
     0.0000   0.0000   0.0000   0.0000

          k = 0.0000 0.0050-0.0100 (  2610 PWs)   bands (ev):

    -7.8581   5.2981   5.3088   5.3099   6.3298   9.0940   9.0969   9.0978
    12.9326  15.7458  15.7564  17.0166

     occupation numbers 
     1.0000   1.0000   1.0000   1.0000   0.0000   0.0000   0.0000   0.0000
     0.0000   0.0000   0.0000   0.0000

          k =-0.0025 0.0075-0.0125 (  2608 PWs)   bands (ev):

    -7.8578   5.2883   5.3077   5.3097   6.3382   9.0938   9.0977   9.0995
    12.9351  15.7384  15.7537  17.0143

     occupation numbers 
     1.0000   1.0000   1.0000   1.0000   0.0000   0.0000   0.0000   0.0000
     0.0000   0.0000   0.0000   0.0000

          k = 0.0100 0.0000 0.0000 (  2613 PWs)   bands (ev):

    -7.8582   5.3015   5.3092   5.3092   6.3276   9.0935   9.0973   9.0973
    12.9319  15.7466  15.7583  17.0168

     occupation numbers 
     1.0000   1.0000   1.0000   1.0000   0.0000   0.0000   0.0000   0.0000
     0.0000   0.0000   0.0000   0.0000

          k = 0.0075 0.0025-0.0025 (  2613 PWs)   bands (ev):

    -7.8583   5.3038   5.3099   5.3101   6.3247   9.0945   9.0964   9.0964
    12.9311  15.7512  15.7571  17.0153

     occupation numbers 
     1.0000   1.0000   1.0000   1.0000   0.0000   0.0000   0.0000   0.0000
     0.0000   0.0000   0.0000   0.0000

          k = 0.0050 0.0050-0.0050 (  2619 PWs)   bands (ev):

    -7.8583   5.3025   5.3103   5.3103   6.3253   9.0956   9.0960   9.0960
    12.9313  15.7538  15.7538  17.0138

     occupation numbers 
     1.0000   1.0000   1.0000   1.0000   0.0000   0.0000   0.0000   0.0000
     0.0000   0.0000   0.0000   0.0000

          k = 0.0025 0.0075-0.0075 (  2611 PWs)   bands (ev):

    -7.8581   5.2981   5.3092   5.3104   6.3293   9.0953   9.0958   9.0974
    12.9324  15.7485  15.7544  17.0143

     occupation numbers 
     1.0000   1.0000   1.0000   1.0000   0.0000   0.0000   0.0000   0.0000
     0.0000   0.0000   0.0000   0.0000

          k = 0.0000 0.0100-0.0100 (  2609 PWs)   bands (ev):

    -7.8578   5.2899   5.3077   5.3103   6.3365   9.0951   9.0961   9.0993
    12.9346  15.7413  15.7529  17.0166

     occupation numbers 
     1.0000   1.0000   1.0000   1.0000   0.0000   0.0000   0.0000   0.0000
     0.0000   0.0000   0.0000   0.0000

          k = 0.0125 0.0025 0.0025 (  2605 PWs)   bands (ev):

    -7.8579   5.2946   5.3083   5.3087   6.3338   9.0928   9.0984   9.0985
    12.9338  15.7400  15.7575  17.0170

     occupation numbers 
     1.0000   1.0000   1.0000   1.0000   0.0000   0.0000   0.0000   0.0000
     0.0000   0.0000   0.0000   0.0000

          k = 0.0100 0.0050 0.0000 (  2610 PWs)   bands (ev):

    -7.8581   5.2981   5.3088   5.3099   6.3298   9.0940   9.0969   9.0978
    12.9326  15.7458  15.7564  17.0165

     occupation numbers 
     1.0000   1.0000   1.0000   1.0000   0.0000   0.0000   0.0000   0.0000
     0.0000   0.0000   0.0000   0.0000

          k = 0.0075 0.0075-0.0025 (  2611 PWs)   bands (ev):

    -7.8581   5.2981   5.3092   5.3104   6.3293   9.0953   9.0958   9.0974
    12.9324  15.7485  15.7544  17.0142

     occupation numbers 
     1.0000   1.0000   1.0000   1.0000   0.0000   0.0000   0.0000   0.0000
     0.0000   0.0000   0.0000   0.0000

          k = 0.0050 0.0100-0.0050 (  2611 PWs)   bands (ev):

    -7.8580   5.2950   5.3091   5.3098   6.3321   9.0945   9.0973   9.0975
    12.9333  15.7454  15.7541  17.0133

     occupation numbers 
     1.0000   1.0000   1.0000   1.0000   0.0000   0.0000   0.0000   0.0000
     0.0000   0.0000   0.0000   0.0000

          k = 0.0025 0.0125-0.0075 (  2608 PWs)   bands (ev):

    -7.8578   5.2883   5.3077   5.3097   6.3382   9.0938   9.0977   9.0995
    12.9351  15.7384  15.7537  17.0144

     occupation numbers 
     1.0000   1.0000   1.0000   1.0000   0.0000   0.0000   0.0000   0.0000
     0.0000   0.0000   0.0000   0.0000

          k = 0.0150 0.0050 0.0050 (  2607 PWs)   bands (ev):

    -7.8575   5.2834   5.3072   5.3083   6.3432   9.0924   9.0999   9.1000
    12.9366  15.7316  15.7547  17.0136

     occupation numbers 
     1.0000   1.0000   1.0000   1.0000   0.0000   0.0000   0.0000   0.0000
     0.0000   0.0000   0.0000   0.0000

          k = 0.0125 0.0075 0.0025 (  2608 PWs)   bands (ev):

    -7.8578   5.2883   5.3077   5.3097   6.3382   9.0938   9.0977   9.0995
    12.9351  15.7384  15.7537  17.0143

     occupation numbers 
     1.0000   1.0000   1.0000   1.0000   0.0000   0.0000   0.0000   0.0000
     0.0000   0.0000   0.0000   0.0000

          k = 0.0100 0.0100 0.0000 (  2609 PWs)   bands (ev):

    -7.8578   5.2899   5.3077   5.3103   6.3365   9.0951   9.0961   9.0993
    12.9346  15.7413  15.7529  17.0171

     occupation numbers 
     1.0000   1.0000   1.0000   1.0000   0.0000   0.0000   0.0000   0.0000
     0.0000   0.0000   0.0000   0.0000

          k = 0.0075 0.0125-0.0025 (  2608 PWs)   bands (ev):

    -7.8578   5.2883   5.3077   5.3097   6.3382   9.0938   9.0977   9.0995
    12.9351  15.7384  15.7537  17.0144

     occupation numbers 
     1.0000   1.0000   1.0000   1.0000   0.0000   0.0000   0.0000   0.0000
     0.0000   0.0000   0.0000   0.0000

          k = 0.0050 0.0150-0.0050 (  2607 PWs)   bands (ev):

    -7.8575   5.2834   5.3072   5.3083   6.3432   9.0924   9.0999   9.1000
    12.9366  15.7316  15.7547  17.0136

     occupation numbers 
     1.0000   1.0000   1.0000   1.0000   0.0000   0.0000   0.0000   0.0000
     0.0000   0.0000   0.0000   0.0000

          k = 0.0025-0.0075-0.0025 (  2613 PWs)   bands (ev):

    -7.8583   5.3038   5.3099   5.3101   6.3247   9.0945   9.0964   9.0964
    12.9311  15.7512  15.7571  17.0153

     occupation numbers 
     1.0000   1.0000   1.0000   1.0000   0.0000   0.0000   0.0000   0.0000
     0.0000   0.0000   0.0000   0.0000

          k = 0.0000-0.0050-0.0050 (  2619 PWs)   bands (ev):

    -7.8584   5.3054   5.3100   5.3106   6.3230   9.0952   9.0954   9.0963
    12.9306  15.7537  15.7566  17.0161

     occupation numbers 
     1.0000   1.0000   1.0000   1.0000   0.0000   0.0000   0.0000   0.0000
     0.0000   0.0000   0.0000   0.0000

          k =-0.0025-0.0025-0.0075 (  2613 PWs)   bands (ev):

    -7.8583   5.3038   5.3099   5.3101   6.3247   9.0945   9.0964   9.0964
    12.9311  15.7512  15.7571  17.0153

     occupation numbers 
     1.0000   1.0000   1.0000   1.0000   0.0000   0.0000   0.0000   0.0000
     0.0000   0.0000   0.0000   0.0000

          k =-0.0050 0.0000-0.0100 (  2610 PWs)   bands (ev):

    -7.8581   5.2981   5.3088   5.3099   6.3298   9.0940   9.0969   9.0978
    12.9326  15.7458  15.7564  17.0165

     occupation numbers 
     1.0000   1.0000   1.0000   1.0000   0.0000   0.0000   0.0000   0.0000
     0.0000   0.0000   0.0000   0.0000

          k =-0.0075 0.0025-0.0125 (  2608 PWs)   bands (ev):

    -7.8578   5.2883   5.3077   5.3097   6.3382   9.0938   9.0977   9.0995
    12.9351  15.7384  15.7537  17.0143

     occupation numbers 
     1.0000   1.0000   1.0000   1.0000   0.0000   0.0000   0.0000   0.0000
     0.0000   0.0000   0.0000   0.0000

          k = 0.0050-0.0050 0.0000 (  2619 PWs)   bands (ev):

    -7.8584   5.3054   5.3100   5.3106   6.3230   9.0952   9.0954   9.0963
    12.9306  15.7537  15.7566  17.0160

     occupation numbers 
     1.0000   1.0000   1.0000   1.0000   0.0000   0.0000   0.0000   0.0000
     0.0000   0.0000   0.0000   0.0000

          k = 0.0025-0.0025-0.0025 (  2625 PWs)   bands (ev):

    -7.8585   5.3087   5.3106   5.3106   6.3201   9.0953   9.0954   9.0954
    12.9298  15.7569  15.7569  17.0154

     occupation numbers 
     1.0000   1.0000   1.0000   1.0000   0.0000   0.0000   0.0000   0.0000
     0.0000   0.0000   0.0000   0.0000

          k = 0.0000 0.0000-0.0050 (  2625 PWs)   bands (ev):

    -7.8585   5.3084   5.3104   5.3104   6.3207   9.0948   9.0957   9.0957
    12.9300  15.7551  15.7580  17.0161

     occupation numbers 
     1.0000   1.0000   1.0000   1.0000   0.0000   0.0000   0.0000   0.0000
     0.0000   0.0000   0.0000   0.0000

          k =-0.0025 0.0025-0.0075 (  2613 PWs)   bands (ev):

    -7.8583   5.3038   5.3099   5.3101   6.3247   9.0945   9.0964   9.0964
    12.9311  15.7512  15.7571  17.0154

     occupation numbers 
     1.0000   1.0000   1.0000   1.0000   0.0000   0.0000   0.0000   0.0000
     0.0000   0.0000   0.0000   0.0000

          k =-0.0050 0.0050-0.0100 (  2611 PWs)   bands (ev):

    -7.8580   5.2950   5.3091   5.3098   6.3321   9.0945   9.0973   9.0975
    12.9333  15.7454  15.7541  17.0132

     occupation numbers 
     1.0000   1.0000   1.0000   1.0000   0.0000   0.0000   0.0000   0.0000
     0.0000   0.0000   0.0000   0.0000

          k = 0.0075-0.0025 0.0025 (  2613 PWs)   bands (ev):

    -7.8583   5.3038   5.3099   5.3101   6.3247   9.0945   9.0964   9.0964
    12.9311  15.7512  15.7571  17.0155

     occupation numbers 
     1.0000   1.0000   1.0000   1.0000   0.0000   0.0000   0.0000   0.0000
     0.0000   0.0000   0.0000   0.0000

          k = 0.0050 0.0000 0.0000 (  2625 PWs)   bands (ev):

    -7.8585   5.3084   5.3104   5.3104   6.3207   9.0948   9.0957   9.0957
    12.9300  15.7551  15.7580  17.0161

     occupation numbers 
     1.0000   1.0000   1.0000   1.0000   0.0000   0.0000   0.0000   0.0000
     0.0000   0.0000   0.0000   0.0000

          k = 0.0025 0.0025-0.0025 (  2625 PWs)   bands (ev):

    -7.8585   5.3087   5.3106   5.3106   6.3201   9.0953   9.0954   9.0954
    12.9298  15.7569  15.7569  17.0154

     occupation numbers 
     1.0000   1.0000   1.0000   1.0000   0.0000   0.0000   0.0000   0.0000
     0.0000   0.0000   0.0000   0.0000

          k = 0.0000 0.0050-0.0050 (  2619 PWs)   bands (ev):

    -7.8584   5.3054   5.3100   5.3106   6.3230   9.0952   9.0954   9.0963
    12.9306  15.7537  15.7566  17.0161

     occupation numbers 
     1.0000   1.0000   1.0000   1.0000   0.0000   0.0000   0.0000   0.0000
     0.0000   0.0000   0.0000   0.0000

          k =-0.0025 0.0075-0.0075 (  2611 PWs)   bands (ev):

    -7.8581   5.2981   5.3092   5.3104   6.3293   9.0953   9.0958   9.0974
    12.9324  15.7485  15.7544  17.0143

     occupation numbers 
     1.0000   1.0000   1.0000   1.0000   0.0000   0.0000   0.0000   0.0000
     0.0000   0.0000   0.0000   0.0000

          k = 0.0100 0.0000 0.0050 (  2610 PWs)   bands (ev):

    -7.8581   5.2981   5.3088   5.3099   6.3298   9.0940   9.0969   9.0978
    12.9326  15.7458  15.7564  17.0169

     occupation numbers 
     1.0000   1.0000   1.0000   1.0000   0.0000   0.0000   0.0000   0.0000
     0.0000   0.0000   0.0000   0.0000

          k = 0.0075 0.0025 0.0025 (  2613 PWs)   bands (ev):

    -7.8583   5.3038   5.3099   5.3101   6.3247   9.0945   9.0964   9.0964
    12.9311  15.7512  15.7571  17.0154

     occupation numbers 
     1.0000   1.0000   1.0000   1.0000   0.0000   0.0000   0.0000   0.0000
     0.0000   0.0000   0.0000   0.0000

          k = 0.0050 0.0050 0.0000 (  2619 PWs)   bands (ev):

    -7.8584   5.3054   5.3100   5.3106   6.3230   9.0952   9.0954   9.0963
    12.9306  15.7537  15.7566  17.0160

     occupation numbers 
     1.0000   1.0000   1.0000   1.0000   0.0000   0.0000   0.0000   0.0000
     0.0000   0.0000   0.0000   0.0000

          k = 0.0025 0.0075-0.0025 (  2613 PWs)   bands (ev):

    -7.8583   5.3038   5.3099   5.3101   6.3247   9.0945   9.0964   9.0964
    12.9311  15.7512  15.7571  17.0154

     occupation numbers 
     1.0000   1.0000   1.0000   1.0000   0.0000   0.0000   0.0000   0.0000
     0.0000   0.0000   0.0000   0.0000

          k = 0.0000 0.0100-0.0050 (  2610 PWs)   bands (ev):

    -7.8581   5.2981   5.3088   5.3099   6.3298   9.0940   9.0969   9.0978
    12.9326  15.7458  15.7564  17.0165

     occupation numbers 
     1.0000   1.0000   1.0000   1.0000   0.0000   0.0000   0.0000   0.0000
     0.0000   0.0000   0.0000   0.0000

          k = 0.0125 0.0025 0.0075 (  2608 PWs)   bands (ev):

    -7.8578   5.2883   5.3077   5.3097   6.3382   9.0938   9.0977   9.0995
    12.9351  15.7384  15.7537  17.0145

     occupation numbers 
     1.0000   1.0000   1.0000   1.0000   0.0000   0.0000   0.0000   0.0000
     0.0000   0.0000   0.0000   0.0000

          k = 0.0100 0.0050 0.0050 (  2611 PWs)   bands (ev):

    -7.8580   5.2950   5.3091   5.3098   6.3321   9.0945   9.0973   9.0975
    12.9333  15.7454  15.7541  17.0132

     occupation numbers 
     1.0000   1.0000   1.0000   1.0000   0.0000   0.0000   0.0000   0.0000
     0.0000   0.0000   0.0000   0.0000

          k = 0.0075 0.0075 0.0025 (  2611 PWs)   bands (ev):

    -7.8581   5.2981   5.3092   5.3104   6.3293   9.0953   9.0958   9.0974
    12.9324  15.7485  15.7544  17.0143

     occupation numbers 
     1.0000   1.0000   1.0000   1.0000   0.0000   0.0000   0.0000   0.0000
     0.0000   0.0000   0.0000   0.0000

          k = 0.0050 0.0100 0.0000 (  2610 PWs)   bands (ev):

    -7.8581   5.2981   5.3088   5.3099   6.3298   9.0940   9.0969   9.0978
    12.9326  15.7458  15.7564  17.0166

     occupation numbers 
     1.0000   1.0000   1.0000   1.0000   0.0000   0.0000   0.0000   0.0000
     0.0000   0.0000   0.0000   0.0000

          k = 0.0025 0.0125-0.0025 (  2605 PWs)   bands (ev):

    -7.8579   5.2946   5.3083   5.3087   6.3338   9.0928   9.0984   9.0985
    12.9338  15.7400  15.7575  17.0166

     occupation numbers 
     1.0000   1.0000   1.0000   1.0000   0.0000   0.0000   0.0000   0.0000
     0.0000   0.0000   0.0000   0.0000

          k = 0.0000-0.0100 0.0000 (  2613 PWs)   bands (ev):

    -7.8582   5.3015   5.3092   5.3092   6.3276   9.0935   9.0973   9.0973
    12.9319  15.7466  15.7583  17.0168

     occupation numbers 
     1.0000   1.0000   1.0000   1.0000   0.0000   0.0000   0.0000   0.0000
     0.0000   0.0000   0.0000   0.0000

          k =-0.0025-0.0075-0.0025 (  2613 PWs)   bands (ev):

    -7.8583   5.3038   5.3099   5.3101   6.3247   9.0945   9.0964   9.0964
    12.9311  15.7512  15.7571  17.0153

     occupation numbers 
     1.0000   1.0000   1.0000   1.0000   0.0000   0.0000   0.0000   0.0000
     0.0000   0.0000   0.0000   0.0000

          k =-0.0050-0.0050-0.0050 (  2619 PWs)   bands (ev):

    -7.8583   5.3025   5.3103   5.3103   6.3253   9.0956   9.0960   9.0960
    12.9313  15.7538  15.7538  17.0138

     occupation numbers 
     1.0000   1.0000   1.0000   1.0000   0.0000   0.0000   0.0000   0.0000
     0.0000   0.0000   0.0000   0.0000

          k =-0.0075-0.0025-0.0075 (  2611 PWs)   bands (ev):

    -7.8581   5.2981   5.3092   5.3104   6.3293   9.0953   9.0958   9.0974
    12.9324  15.7485  15.7544  17.0143

     occupation numbers 
     1.0000   1.0000   1.0000   1.0000   0.0000   0.0000   0.0000   0.0000
     0.0000   0.0000   0.0000   0.0000

          k =-0.0100 0.0000-0.0100 (  2609 PWs)   bands (ev):

    -7.8578   5.2899   5.3077   5.3103   6.3365   9.0951   9.0961   9.0993
    12.9346  15.7413  15.7529  17.0165

     occupation numbers 
     1.0000   1.0000   1.0000   1.0000   0.0000   0.0000   0.0000   0.0000
     0.0000   0.0000   0.0000   0.0000

          k = 0.0025-0.0075 0.0025 (  2613 PWs)   bands (ev):

    -7.8583   5.3038   5.3099   5.3101   6.3247   9.0945   9.0964   9.0964
    12.9311  15.7512  15.7571  17.0153

     occupation numbers 
     1.0000   1.0000   1.0000   1.0000   0.0000   0.0000   0.0000   0.0000
     0.0000   0.0000   0.0000   0.0000

          k = 0.0000-0.0050 0.0000 (  2625 PWs)   bands (ev):

    -7.8585   5.3084   5.3104   5.3104   6.3207   9.0948   9.0957   9.0957
    12.9300  15.7551  15.7580  17.0161

     occupation numbers 
     1.0000   1.0000   1.0000   1.0000   0.0000   0.0000   0.0000   0.0000
     0.0000   0.0000   0.0000   0.0000

          k =-0.0025-0.0025-0.0025 (  2625 PWs)   bands (ev):

    -7.8585   5.3087   5.3106   5.3106   6.3201   9.0953   9.0954   9.0954
    12.9298  15.7569  15.7569  17.0154

     occupation numbers 
     1.0000   1.0000   1.0000   1.0000   0.0000   0.0000   0.0000   0.0000
     0.0000   0.0000   0.0000   0.0000

          k =-0.0050 0.0000-0.0050 (  2619 PWs)   bands (ev):

    -7.8584   5.3054   5.3100   5.3106   6.3230   9.0952   9.0954   9.0963
    12.9306  15.7537  15.7566  17.0161

     occupation numbers 
     1.0000   1.0000   1.0000   1.0000   0.0000   0.0000   0.0000   0.0000
     0.0000   0.0000   0.0000   0.0000

          k =-0.0075 0.0025-0.0075 (  2611 PWs)   bands (ev):

    -7.8581   5.2981   5.3092   5.3104   6.3293   9.0953   9.0958   9.0974
    12.9324  15.7485  15.7544  17.0142

     occupation numbers 
     1.0000   1.0000   1.0000   1.0000   0.0000   0.0000   0.0000   0.0000
     0.0000   0.0000   0.0000   0.0000

          k = 0.0050-0.0050 0.0050 (  2619 PWs)   bands (ev):

    -7.8583   5.3025   5.3103   5.3103   6.3253   9.0956   9.0960   9.0960
    12.9313  15.7538  15.7538  17.0138

     occupation numbers 
     1.0000   1.0000   1.0000   1.0000   0.0000   0.0000   0.0000   0.0000
     0.0000   0.0000   0.0000   0.0000

          k = 0.0025-0.0025 0.0025 (  2625 PWs)   bands (ev):

    -7.8585   5.3087   5.3106   5.3106   6.3201   9.0953   9.0954   9.0954
    12.9298  15.7569  15.7569  17.0154

     occupation numbers 
     1.0000   1.0000   1.0000   1.0000   0.0000   0.0000   0.0000   0.0000
     0.0000   0.0000   0.0000   0.0000

          k = 0.0000 0.0000 0.0000 (  2637 PWs)   bands (ev):

    -7.8586   5.3107   5.3107   5.3107   6.3184   9.0952   9.0952   9.0952
    12.9293  15.7579  15.7579  17.0159

     occupation numbers 
     1.0000   1.0000   1.0000   1.0000   0.0000   0.0000   0.0000   0.0000
     0.0000   0.0000   0.0000   0.0000

          k =-0.0025 0.0025-0.0025 (  2625 PWs)   bands (ev):

    -7.8585   5.3087   5.3106   5.3106   6.3201   9.0953   9.0954   9.0954
    12.9298  15.7569  15.7569  17.0154

     occupation numbers 
     1.0000   1.0000   1.0000   1.0000   0.0000   0.0000   0.0000   0.0000
     0.0000   0.0000   0.0000   0.0000

          k =-0.0050 0.0050-0.0050 (  2619 PWs)   bands (ev):

    -7.8583   5.3025   5.3103   5.3103   6.3253   9.0956   9.0960   9.0960
    12.9313  15.7538  15.7538  17.0138

     occupation numbers 
     1.0000   1.0000   1.0000   1.0000   0.0000   0.0000   0.0000   0.0000
     0.0000   0.0000   0.0000   0.0000

          k = 0.0075-0.0025 0.0075 (  2611 PWs)   bands (ev):

    -7.8581   5.2981   5.3092   5.3104   6.3293   9.0953   9.0958   9.0974
    12.9324  15.7485  15.7544  17.0143

     occupation numbers 
     1.0000   1.0000   1.0000   1.0000   0.0000   0.0000   0.0000   0.0000
     0.0000   0.0000   0.0000   0.0000

          k = 0.0050 0.0000 0.0050 (  2619 PWs)   bands (ev):

    -7.8584   5.3054   5.3100   5.3106   6.3230   9.0952   9.0954   9.0963
    12.9306  15.7537  15.7566  17.0160

     occupation numbers 
     1.0000   1.0000   1.0000   1.0000   0.0000   0.0000   0.0000   0.0000
     0.0000   0.0000   0.0000   0.0000

          k = 0.0025 0.0025 0.0025 (  2625 PWs)   bands (ev):

    -7.8585   5.3087   5.3106   5.3106   6.3201   9.0953   9.0954   9.0954
    12.9298  15.7569  15.7569  17.0154

     occupation numbers 
     1.0000   1.0000   1.0000   1.0000   0.0000   0.0000   0.0000   0.0000
     0.0000   0.0000   0.0000   0.0000

          k = 0.0000 0.0050 0.0000 (  2625 PWs)   bands (ev):

    -7.8585   5.3084   5.3104   5.3104   6.3207   9.0948   9.0957   9.0957
    12.9300  15.7551  15.7580  17.0161

     occupation numbers 
     1.0000   1.0000   1.0000   1.0000   0.0000   0.0000   0.0000   0.0000
     0.0000   0.0000   0.0000   0.0000

          k =-0.0025 0.0075-0.0025 (  2613 PWs)   bands (ev):

    -7.8583   5.3038   5.3099   5.3101   6.3247   9.0945   9.0964   9.0964
    12.9311  15.7512  15.7571  17.0158

     occupation numbers 
     1.0000   1.0000   1.0000   1.0000   0.0000   0.0000   0.0000   0.0000
     0.0000   0.0000   0.0000   0.0000

          k = 0.0100 0.0000 0.0100 (  2609 PWs)   bands (ev):

    -7.8578   5.2899   5.3077   5.3103   6.3365   9.0951   9.0961   9.0993
    12.9346  15.7413  15.7529  17.0165

     occupation numbers 
     1.0000   1.0000   1.0000   1.0000   0.0000   0.0000   0.0000   0.0000
     0.0000   0.0000   0.0000   0.0000

          k = 0.0075 0.0025 0.0075 (  2611 PWs)   bands (ev):

    -7.8581   5.2981   5.3092   5.3104   6.3293   9.0953   9.0958   9.0974
    12.9324  15.7485  15.7544  17.0143

     occupation numbers 
     1.0000   1.0000   1.0000   1.0000   0.0000   0.0000   0.0000   0.0000
     0.0000   0.0000   0.0000   0.0000

          k = 0.0050 0.0050 0.0050 (  2619 PWs)   bands (ev):

    -7.8583   5.3025   5.3103   5.3103   6.3253   9.0956   9.0960   9.0960
    12.9313  15.7538  15.7538  17.0139

     occupation numbers 
     1.0000   1.0000   1.0000   1.0000   0.0000   0.0000   0.0000   0.0000
     0.0000   0.0000   0.0000   0.0000

          k = 0.0025 0.0075 0.0025 (  2613 PWs)   bands (ev):

    -7.8583   5.3038   5.3099   5.3101   6.3247   9.0945   9.0964   9.0964
    12.9311  15.7512  15.7571  17.0166

     occupation numbers 
     1.0000   1.0000   1.0000   1.0000   0.0000   0.0000   0.0000   0.0000
     0.0000   0.0000   0.0000   0.0000

          k = 0.0000 0.0100 0.0000 (  2613 PWs)   bands (ev):

    -7.8582   5.3015   5.3092   5.3092   6.3276   9.0935   9.0973   9.0973
    12.9319  15.7466  15.7583  17.0168

     occupation numbers 
     1.0000   1.0000   1.0000   1.0000   0.0000   0.0000   0.0000   0.0000
     0.0000   0.0000   0.0000   0.0000

          k =-0.0025-0.0125 0.0025 (  2605 PWs)   bands (ev):

    -7.8579   5.2946   5.3083   5.3087   6.3338   9.0928   9.0984   9.0985
    12.9338  15.7400  15.7575  17.0160

     occupation numbers 
     1.0000   1.0000   1.0000   1.0000   0.0000   0.0000   0.0000   0.0000
     0.0000   0.0000   0.0000   0.0000

          k =-0.0050-0.0100 0.0000 (  2610 PWs)   bands (ev):

    -7.8581   5.2981   5.3088   5.3099   6.3298   9.0940   9.0969   9.0978
    12.9326  15.7458  15.7564  17.0166

     occupation numbers 
     1.0000   1.0000   1.0000   1.0000   0.0000   0.0000   0.0000   0.0000
     0.0000   0.0000   0.0000   0.0000

          k =-0.0075-0.0075-0.0025 (  2611 PWs)   bands (ev):

    -7.8581   5.2981   5.3092   5.3104   6.3293   9.0953   9.0958   9.0974
    12.9324  15.7485  15.7544  17.0144

     occupation numbers 
     1.0000   1.0000   1.0000   1.0000   0.0000   0.0000   0.0000   0.0000
     0.0000   0.0000   0.0000   0.0000

          k =-0.0100-0.0050-0.0050 (  2611 PWs)   bands (ev):

    -7.8580   5.2950   5.3091   5.3098   6.3321   9.0945   9.0973   9.0975
    12.9333  15.7454  15.7541  17.0132

     occupation numbers 
     1.0000   1.0000   1.0000   1.0000   0.0000   0.0000   0.0000   0.0000
     0.0000   0.0000   0.0000   0.0000

          k =-0.0125-0.0025-0.0075 (  2608 PWs)   bands (ev):

    -7.8578   5.2883   5.3077   5.3097   6.3382   9.0938   9.0977   9.0995
    12.9351  15.7384  15.7537  17.0143

     occupation numbers 
     1.0000   1.0000   1.0000   1.0000   0.0000   0.0000   0.0000   0.0000
     0.0000   0.0000   0.0000   0.0000

          k = 0.0000-0.0100 0.0050 (  2610 PWs)   bands (ev):

    -7.8581   5.2981   5.3088   5.3099   6.3298   9.0940   9.0969   9.0978
    12.9326  15.7458  15.7564  17.0165

     occupation numbers 
     1.0000   1.0000   1.0000   1.0000   0.0000   0.0000   0.0000   0.0000
     0.0000   0.0000   0.0000   0.0000

          k =-0.0025-0.0075 0.0025 (  2613 PWs)   bands (ev):

    -7.8583   5.3038   5.3099   5.3101   6.3247   9.0945   9.0964   9.0964
    12.9311  15.7512  15.7571  17.0153

     occupation numbers 
     1.0000   1.0000   1.0000   1.0000   0.0000   0.0000   0.0000   0.0000
     0.0000   0.0000   0.0000   0.0000

          k =-0.0050-0.0050 0.0000 (  2619 PWs)   bands (ev):

    -7.8584   5.3054   5.3100   5.3106   6.3230   9.0952   9.0954   9.0963
    12.9306  15.7537  15.7566  17.0160

     occupation numbers 
     1.0000   1.0000   1.0000   1.0000   0.0000   0.0000   0.0000   0.0000
     0.0000   0.0000   0.0000   0.0000

          k =-0.0075-0.0025-0.0025 (  2613 PWs)   bands (ev):

    -7.8583   5.3038   5.3099   5.3101   6.3247   9.0945   9.0964   9.0964
    12.9311  15.7512  15.7571  17.0154

     occupation numbers 
     1.0000   1.0000   1.0000   1.0000   0.0000   0.0000   0.0000   0.0000
     0.0000   0.0000   0.0000   0.0000

          k =-0.0100 0.0000-0.0050 (  2610 PWs)   bands (ev):

    -7.8581   5.2981   5.3088   5.3099   6.3298   9.0940   9.0969   9.0978
    12.9326  15.7458  15.7564  17.0166

     occupation numbers 
     1.0000   1.0000   1.0000   1.0000   0.0000   0.0000   0.0000   0.0000
     0.0000   0.0000   0.0000   0.0000

          k = 0.0025-0.0075 0.0075 (  2611 PWs)   bands (ev):

    -7.8581   5.2981   5.3092   5.3104   6.3293   9.0953   9.0958   9.0974
    12.9324  15.7485  15.7544  17.0142

     occupation numbers 
     1.0000   1.0000   1.0000   1.0000   0.0000   0.0000   0.0000   0.0000
     0.0000   0.0000   0.0000   0.0000

          k = 0.0000-0.0050 0.0050 (  2619 PWs)   bands (ev):

    -7.8584   5.3054   5.3100   5.3106   6.3230   9.0952   9.0954   9.0963
    12.9306  15.7537  15.7566  17.0161

     occupation numbers 
     1.0000   1.0000   1.0000   1.0000   0.0000   0.0000   0.0000   0.0000
     0.0000   0.0000   0.0000   0.0000

          k =-0.0025-0.0025 0.0025 (  2625 PWs)   bands (ev):

    -7.8585   5.3087   5.3106   5.3106   6.3201   9.0953   9.0954   9.0954
    12.9298  15.7569  15.7569  17.0154

     occupation numbers 
     1.0000   1.0000   1.0000   1.0000   0.0000   0.0000   0.0000   0.0000
     0.0000   0.0000   0.0000   0.0000

          k =-0.0050 0.0000 0.0000 (  2625 PWs)   bands (ev):

    -7.8585   5.3084   5.3104   5.3104   6.3207   9.0948   9.0957   9.0957
    12.9300  15.7551  15.7580  17.0161

     occupation numbers 
     1.0000   1.0000   1.0000   1.0000   0.0000   0.0000   0.0000   0.0000
     0.0000   0.0000   0.0000   0.0000

          k =-0.0075 0.0025-0.0025 (  2613 PWs)   bands (ev):

    -7.8583   5.3038   5.3099   5.3101   6.3247   9.0945   9.0964   9.0964
    12.9311  15.7512  15.7571  17.0153

     occupation numbers 
     1.0000   1.0000   1.0000   1.0000   0.0000   0.0000   0.0000   0.0000
     0.0000   0.0000   0.0000   0.0000

          k = 0.0050-0.0050 0.0100 (  2611 PWs)   bands (ev):

    -7.8580   5.2950   5.3091   5.3098   6.3321   9.0945   9.0973   9.0975
    12.9333  15.7454  15.7541  17.0132

     occupation numbers 
     1.0000   1.0000   1.0000   1.0000   0.0000   0.0000   0.0000   0.0000
     0.0000   0.0000   0.0000   0.0000

          k = 0.0025-0.0025 0.0075 (  2613 PWs)   bands (ev):

    -7.8583   5.3038   5.3099   5.3101   6.3247   9.0945   9.0964   9.0964
    12.9311  15.7512  15.7571  17.0153

     occupation numbers 
     1.0000   1.0000   1.0000   1.0000   0.0000   0.0000   0.0000   0.0000
     0.0000   0.0000   0.0000   0.0000

          k = 0.0000 0.0000 0.0050 (  2625 PWs)   bands (ev):

    -7.8585   5.3084   5.3104   5.3104   6.3207   9.0948   9.0957   9.0957
    12.9300  15.7551  15.7580  17.0161

     occupation numbers 
     1.0000   1.0000   1.0000   1.0000   0.0000   0.0000   0.0000   0.0000
     0.0000   0.0000   0.0000   0.0000

          k =-0.0025 0.0025 0.0025 (  2625 PWs)   bands (ev):

    -7.8585   5.3087   5.3106   5.3106   6.3201   9.0953   9.0954   9.0954
    12.9298  15.7569  15.7569  17.0154

     occupation numbers 
     1.0000   1.0000   1.0000   1.0000   0.0000   0.0000   0.0000   0.0000
     0.0000   0.0000   0.0000   0.0000

          k =-0.0050 0.0050 0.0000 (  2619 PWs)   bands (ev):

    -7.8584   5.3054   5.3100   5.3106   6.3230   9.0952   9.0954   9.0963
    12.9306  15.7537  15.7566  17.0161

     occupation numbers 
     1.0000   1.0000   1.0000   1.0000   0.0000   0.0000   0.0000   0.0000
     0.0000   0.0000   0.0000   0.0000

          k = 0.0075-0.0025 0.0125 (  2608 PWs)   bands (ev):

    -7.8578   5.2883   5.3077   5.3097   6.3382   9.0938   9.0977   9.0995
    12.9351  15.7384  15.7537  17.0143

     occupation numbers 
     1.0000   1.0000   1.0000   1.0000   0.0000   0.0000   0.0000   0.0000
     0.0000   0.0000   0.0000   0.0000

          k = 0.0050 0.0000 0.0100 (  2610 PWs)   bands (ev):

    -7.8581   5.2981   5.3088   5.3099   6.3298   9.0940   9.0969   9.0978
    12.9326  15.7458  15.7564  17.0167

     occupation numbers 
     1.0000   1.0000   1.0000   1.0000   0.0000   0.0000   0.0000   0.0000
     0.0000   0.0000   0.0000   0.0000

          k = 0.0025 0.0025 0.0075 (  2613 PWs)   bands (ev):

    -7.8583   5.3038   5.3099   5.3101   6.3247   9.0945   9.0964   9.0964
    12.9311  15.7512  15.7571  17.0156

     occupation numbers 
     1.0000   1.0000   1.0000   1.0000   0.0000   0.0000   0.0000   0.0000
     0.0000   0.0000   0.0000   0.0000

          k = 0.0000 0.0050 0.0050 (  2619 PWs)   bands (ev):

    -7.8584   5.3054   5.3100   5.3106   6.3230   9.0952   9.0954   9.0963
    12.9306  15.7537  15.7566  17.0161

     occupation numbers 
     1.0000   1.0000   1.0000   1.0000   0.0000   0.0000   0.0000   0.0000
     0.0000   0.0000   0.0000   0.0000

          k =-0.0025 0.0075 0.0025 (  2613 PWs)   bands (ev):

    -7.8583   5.3038   5.3099   5.3101   6.3247   9.0945   9.0964   9.0964
    12.9311  15.7512  15.7571  17.0153

     occupation numbers 
     1.0000   1.0000   1.0000   1.0000   0.0000   0.0000   0.0000   0.0000
     0.0000   0.0000   0.0000   0.0000

          k =-0.0050-0.0150 0.0050 (  2607 PWs)   bands (ev):

    -7.8575   5.2834   5.3072   5.3083   6.3432   9.0924   9.0999   9.1000
    12.9366  15.7316  15.7547  17.0136

     occupation numbers 
     1.0000   1.0000   1.0000   1.0000   0.0000   0.0000   0.0000   0.0000
     0.0000   0.0000   0.0000   0.0000

          k =-0.0075-0.0125 0.0025 (  2608 PWs)   bands (ev):

    -7.8578   5.2883   5.3077   5.3097   6.3382   9.0938   9.0977   9.0995
    12.9351  15.7384  15.7537  17.0145

     occupation numbers 
     1.0000   1.0000   1.0000   1.0000   0.0000   0.0000   0.0000   0.0000
     0.0000   0.0000   0.0000   0.0000

          k =-0.0100-0.0100 0.0000 (  2609 PWs)   bands (ev):

    -7.8578   5.2899   5.3077   5.3103   6.3365   9.0951   9.0961   9.0993
    12.9346  15.7413  15.7529  17.0165

     occupation numbers 
     1.0000   1.0000   1.0000   1.0000   0.0000   0.0000   0.0000   0.0000
     0.0000   0.0000   0.0000   0.0000

          k =-0.0125-0.0075-0.0025 (  2608 PWs)   bands (ev):

    -7.8578   5.2883   5.3077   5.3097   6.3382   9.0938   9.0977   9.0995
    12.9351  15.7384  15.7537  17.0144

     occupation numbers 
     1.0000   1.0000   1.0000   1.0000   0.0000   0.0000   0.0000   0.0000
     0.0000   0.0000   0.0000   0.0000

          k =-0.0150-0.0050-0.0050 (  2607 PWs)   bands (ev):

    -7.8575   5.2834   5.3072   5.3083   6.3432   9.0924   9.0999   9.1000
    12.9366  15.7316  15.7547  17.0136

     occupation numbers 
     1.0000   1.0000   1.0000   1.0000   0.0000   0.0000   0.0000   0.0000
     0.0000   0.0000   0.0000   0.0000

          k =-0.0025-0.0125 0.0075 (  2608 PWs)   bands (ev):

    -7.8578   5.2883   5.3077   5.3097   6.3382   9.0938   9.0977   9.0995
    12.9351  15.7384  15.7537  17.0145

     occupation numbers 
     1.0000   1.0000   1.0000   1.0000   0.0000   0.0000   0.0000   0.0000
     0.0000   0.0000   0.0000   0.0000

          k =-0.0050-0.0100 0.0050 (  2611 PWs)   bands (ev):

    -7.8580   5.2950   5.3091   5.3098   6.3321   9.0945   9.0973   9.0975
    12.9333  15.7454  15.7541  17.0132

     occupation numbers 
     1.0000   1.0000   1.0000   1.0000   0.0000   0.0000   0.0000   0.0000
     0.0000   0.0000   0.0000   0.0000

          k =-0.0075-0.0075 0.0025 (  2611 PWs)   bands (ev):

    -7.8581   5.2981   5.3092   5.3104   6.3293   9.0953   9.0958   9.0974
    12.9324  15.7485  15.7544  17.0142

     occupation numbers 
     1.0000   1.0000   1.0000   1.0000   0.0000   0.0000   0.0000   0.0000
     0.0000   0.0000   0.0000   0.0000

          k =-0.0100-0.0050 0.0000 (  2610 PWs)   bands (ev):

    -7.8581   5.2981   5.3088   5.3099   6.3298   9.0940   9.0969   9.0978
    12.9326  15.7458  15.7564  17.0166

     occupation numbers 
     1.0000   1.0000   1.0000   1.0000   0.0000   0.0000   0.0000   0.0000
     0.0000   0.0000   0.0000   0.0000

          k =-0.0125-0.0025-0.0025 (  2605 PWs)   bands (ev):

    -7.8579   5.2946   5.3083   5.3087   6.3338   9.0928   9.0984   9.0985
    12.9338  15.7400  15.7575  17.0161

     occupation numbers 
     1.0000   1.0000   1.0000   1.0000   0.0000   0.0000   0.0000   0.0000
     0.0000   0.0000   0.0000   0.0000

          k = 0.0000-0.0100 0.0100 (  2609 PWs)   bands (ev):

    -7.8578   5.2899   5.3077   5.3103   6.3365   9.0951   9.0961   9.0993
    12.9346  15.7413  15.7529  17.0169

     occupation numbers 
     1.0000   1.0000   1.0000   1.0000   0.0000   0.0000   0.0000   0.0000
     0.0000   0.0000   0.0000   0.0000

          k =-0.0025-0.0075 0.0075 (  2611 PWs)   bands (ev):

    -7.8581   5.2981   5.3092   5.3104   6.3293   9.0953   9.0958   9.0974
    12.9324  15.7485  15.7544  17.0142

     occupation numbers 
     1.0000   1.0000   1.0000   1.0000   0.0000   0.0000   0.0000   0.0000
     0.0000   0.0000   0.0000   0.0000

          k =-0.0050-0.0050 0.0050 (  2619 PWs)   bands (ev):

    -7.8583   5.3025   5.3103   5.3103   6.3253   9.0956   9.0960   9.0960
    12.9313  15.7538  15.7538  17.0138

     occupation numbers 
     1.0000   1.0000   1.0000   1.0000   0.0000   0.0000   0.0000   0.0000
     0.0000   0.0000   0.0000   0.0000

          k =-0.0075-0.0025 0.0025 (  2613 PWs)   bands (ev):

    -7.8583   5.3038   5.3099   5.3101   6.3247   9.0945   9.0964   9.0964
    12.9311  15.7512  15.7571  17.0158

     occupation numbers 
     1.0000   1.0000   1.0000   1.0000   0.0000   0.0000   0.0000   0.0000
     0.0000   0.0000   0.0000   0.0000

          k =-0.0100 0.0000 0.0000 (  2613 PWs)   bands (ev):

    -7.8582   5.3015   5.3092   5.3092   6.3276   9.0935   9.0973   9.0973
    12.9319  15.7466  15.7583  17.0168

     occupation numbers 
     1.0000   1.0000   1.0000   1.0000   0.0000   0.0000   0.0000   0.0000
     0.0000   0.0000   0.0000   0.0000

          k = 0.0025-0.0075 0.0125 (  2608 PWs)   bands (ev):

    -7.8578   5.2883   5.3077   5.3097   6.3382   9.0938   9.0977   9.0995
    12.9351  15.7384  15.7537  17.0144

     occupation numbers 
     1.0000   1.0000   1.0000   1.0000   0.0000   0.0000   0.0000   0.0000
     0.0000   0.0000   0.0000   0.0000

          k = 0.0000-0.0050 0.0100 (  2610 PWs)   bands (ev):

    -7.8581   5.2981   5.3088   5.3099   6.3298   9.0940   9.0969   9.0978
    12.9326  15.7458  15.7564  17.0166

     occupation numbers 
     1.0000   1.0000   1.0000   1.0000   0.0000   0.0000   0.0000   0.0000
     0.0000   0.0000   0.0000   0.0000

          k =-0.0025-0.0025 0.0075 (  2613 PWs)   bands (ev):

    -7.8583   5.3038   5.3099   5.3101   6.3247   9.0945   9.0964   9.0964
    12.9311  15.7512  15.7571  17.0154

     occupation numbers 
     1.0000   1.0000   1.0000   1.0000   0.0000   0.0000   0.0000   0.0000
     0.0000   0.0000   0.0000   0.0000

          k =-0.0050 0.0000 0.0050 (  2619 PWs)   bands (ev):

    -7.8584   5.3054   5.3100   5.3106   6.3230   9.0952   9.0954   9.0963
    12.9306  15.7537  15.7566  17.0160

     occupation numbers 
     1.0000   1.0000   1.0000   1.0000   0.0000   0.0000   0.0000   0.0000
     0.0000   0.0000   0.0000   0.0000

          k =-0.0075 0.0025 0.0025 (  2613 PWs)   bands (ev):

    -7.8583   5.3038   5.3099   5.3101   6.3247   9.0945   9.0964   9.0964
    12.9311  15.7512  15.7571  17.0154

     occupation numbers 
     1.0000   1.0000   1.0000   1.0000   0.0000   0.0000   0.0000   0.0000
     0.0000   0.0000   0.0000   0.0000

          k = 0.0050-0.0050 0.0150 (  2607 PWs)   bands (ev):

    -7.8575   5.2834   5.3072   5.3083   6.3432   9.0924   9.0999   9.1000
    12.9366  15.7316  15.7547  17.0136

     occupation numbers 
     1.0000   1.0000   1.0000   1.0000   0.0000   0.0000   0.0000   0.0000
     0.0000   0.0000   0.0000   0.0000

          k = 0.0025-0.0025 0.0125 (  2605 PWs)   bands (ev):

    -7.8579   5.2946   5.3083   5.3087   6.3338   9.0928   9.0984   9.0985
    12.9338  15.7400  15.7575  17.0169

     occupation numbers 
     1.0000   1.0000   1.0000   1.0000   0.0000   0.0000   0.0000   0.0000
     0.0000   0.0000   0.0000   0.0000

          k = 0.0000 0.0000 0.0100 (  2613 PWs)   bands (ev):

    -7.8582   5.3015   5.3092   5.3092   6.3276   9.0935   9.0973   9.0973
    12.9319  15.7466  15.7583  17.0168

     occupation numbers 
     1.0000   1.0000   1.0000   1.0000   0.0000   0.0000   0.0000   0.0000
     0.0000   0.0000   0.0000   0.0000

          k =-0.0025 0.0025 0.0075 (  2613 PWs)   bands (ev):

    -7.8583   5.3038   5.3099   5.3101   6.3247   9.0945   9.0964   9.0964
    12.9311  15.7512  15.7571  17.0155

     occupation numbers 
     1.0000   1.0000   1.0000   1.0000   0.0000   0.0000   0.0000   0.0000
     0.0000   0.0000   0.0000   0.0000

          k =-0.0050 0.0050 0.0050 (  2619 PWs)   bands (ev):

    -7.8583   5.3025   5.3103   5.3103   6.3253   9.0956   9.0960   9.0960
    12.9313  15.7538  15.7538  17.0138

     occupation numbers 
     1.0000   1.0000   1.0000   1.0000   0.0000   0.0000   0.0000   0.0000
     0.0000   0.0000   0.0000   0.0000

     highest occupied, lowest unoccupied level (ev):     5.3107    6.3184

     Writing output data file GaAs.save
 
     init_run     :      0.19s CPU      0.41s WALL (       1 calls)
     electrons    :     49.93s CPU     52.66s WALL (       1 calls)

     Called by init_run:
     wfcinit      :      0.00s CPU      0.00s WALL (       1 calls)
     potinit      :      0.01s CPU      0.22s WALL (       1 calls)

     Called by electrons:
     c_bands      :     49.93s CPU     52.66s WALL (       1 calls)
     v_of_rho     :      0.01s CPU      0.01s WALL (       1 calls)
     v_h          :      0.00s CPU      0.00s WALL (       1 calls)
     v_xc         :      0.00s CPU      0.00s WALL (       1 calls)

     Called by c_bands:
     init_us_2    :      0.03s CPU      0.03s WALL (      32 calls)
     ccgdiagg     :     43.98s CPU     46.37s WALL (     192 calls)
     wfcrot       :      5.22s CPU      5.52s WALL (     192 calls)

     Called by sum_band:

     Called by *cgdiagg:
     h_psi        :     44.47s CPU     46.98s WALL (   23377 calls)
     cdiaghg      :      0.04s CPU      0.04s WALL (     192 calls)

     Called by h_psi:
     h_psi:vloc   :     41.08s CPU     43.63s WALL (   23377 calls)
     h_psi:vnl    :      3.28s CPU      3.19s WALL (   23377 calls)
     add_vuspsi   :      1.36s CPU      1.30s WALL (   23377 calls)
     h_1psi       :     39.66s CPU     41.92s WALL (   23185 calls)

     General routines
     calbec       :      2.97s CPU      2.93s WALL (   46562 calls)
     fft          :      0.00s CPU      0.01s WALL (       3 calls)
     fftw         :     37.31s CPU     39.94s WALL (   52258 calls)
     davcio       :      0.00s CPU      0.00s WALL (      32 calls)
 
     Parallel routines
     fft_scatter  :      4.28s CPU      5.10s WALL (   52261 calls)
 
     PWSCF        :    51.15s CPU        54.40s WALL

 
   This run was terminated on:  13:37:42   8May2017            

=------------------------------------------------------------------------------=
   JOB DONE.
=------------------------------------------------------------------------------=
